VARIABLES="X" "Y" "rho_N2" "rho_O2" "rho_NO" "rho_N" "rho_O" "rho_NOp" "rho_N2p" "rho_O2p" "rho_Np" "rho_Op" "rho_e" "U" "V" "T" "Tv" "rho" "P" "H" "tau"  
ZONE N= 1761 E= 1671 F=FEPOINT ET=QUADRILATERAL 
2.525253e-02 0.000000e+00 3.322551e-01 1.004435e-01 8.740044e-04 3.398405e-09 1.032714e-03 3.418103e-11 1.640645e-21 1.547885e-14 1.834152e-21 5.443787e-19 6.253628e-16 0.000000e+00 2.168404e-19 2.103151e+03 2.103151e+03 4.346054e-01 2.640114e+05 2.437634e+06 2.030489e-06 
2.525253e-02 5.000000e-06 3.233397e-01 9.774817e-02 8.506367e-04 3.824488e-09 1.005135e-03 3.326367e-11 2.071145e-21 1.612589e-14 1.252806e-20 5.314591e-19 6.085886e-16 -3.097140e-01 -2.963220e-02 2.161316e+03 2.164322e+03 4.229436e-01 2.640328e+05 2.511627e+06 3.958504e-06 
0.000000e+00 5.000000e-06 1.908381e-01 5.776625e-02 4.456820e-04 2.831266e-09 5.394225e-04 1.825621e-11 1.834556e-21 1.245416e-14 6.255472e-21 2.403572e-19 3.340723e-16 5.402274e+02 -9.505318e+02 1.281066e+03 1.282582e+03 2.495895e-01 9.233605e+04 2.379030e+06 1.623544e-06 
0.000000e+00 0.000000e+00 3.621196e-01 1.094983e-01 9.175517e-04 4.997156e-09 1.110422e-03 3.758508e-11 2.878856e-21 2.386380e-14 1.801407e-21 4.950716e-19 6.877647e-16 0.000000e+00 0.000000e+00 2.174808e+03 2.174808e+03 4.736459e-01 2.975223e+05 2.520533e+06 1.670100e-06 
5.050505e-02 0.000000e+00 2.834832e-01 8.568097e-02 7.917452e-04 1.278245e-09 8.869312e-04 2.811275e-11 2.686998e-22 4.738663e-15 1.268889e-20 6.472935e-19 5.142093e-16 0.000000e+00 0.000000e+00 1.976426e+03 1.976426e+03 3.708429e-01 2.117059e+05 2.277046e+06 2.807076e-06 
5.050505e-02 5.000000e-06 2.768443e-01 8.367434e-02 7.732336e-04 1.402128e-09 8.661993e-04 2.745320e-11 3.105258e-22 4.896371e-15 1.302308e-20 6.367482e-19 5.021455e-16 1.888652e+01 6.582525e-03 2.023978e+03 2.026771e+03 3.621581e-01 2.117223e+05 2.337263e+06 5.492966e-06 
7.575758e-02 0.000000e+00 2.723874e-01 8.234954e-02 7.833762e-04 4.668793e-10 8.231739e-04 2.602978e-11 8.151262e-23 1.331089e-15 2.348116e-20 7.767903e-19 4.760777e-16 -2.220446e-16 0.000000e+00 1.819910e+03 1.819910e+03 3.563435e-01 1.873050e+05 2.075461e+06 3.745459e-06 
7.575758e-02 5.000000e-06 2.670988e-01 8.075065e-02 7.681906e-04 5.025584e-10 8.071904e-04 2.552410e-11 8.904208e-23 1.368404e-15 1.331321e-20 7.692390e-19 4.668181e-16 1.790908e+01 5.610326e-03 1.856515e+03 1.858729e+03 3.494249e-01 1.873626e+05 2.120946e+06 7.360050e-06 
1.010101e-01 0.000000e+00 2.917481e-01 8.824985e-02 8.597500e-04 1.161338e-10 8.229101e-04 2.747484e-11 1.727718e-23 1.600381e-16 1.226469e-20 8.606437e-19 5.024979e-16 -2.220446e-16 0.000000e+00 1.642805e+03 1.642805e+03 3.816806e-01 1.810743e+05 1.854968e+06 4.773068e-06 
1.010101e-01 5.000000e-06 2.872449e-01 8.688768e-02 8.465037e-04 1.226663e-10 8.102112e-04 2.705079e-11 1.861327e-23 1.651419e-16 1.264209e-20 8.544577e-19 4.947408e-16 1.112805e+01 1.203916e-03 1.668895e+03 1.670164e+03 3.757893e-01 1.811107e+05 1.886953e+06 9.415487e-06 
1.262626e-01 0.000000e+00 3.099079e-01 9.380490e-02 9.438406e-04 4.314542e-11 8.021959e-04 2.875484e-11 4.713941e-24 2.824505e-17 1.223710e-20 8.558969e-19 5.258923e-16 1.110223e-16 -1.355253e-20 1.532818e+03 1.532818e+03 4.054588e-01 1.794479e+05 1.720148e+06 5.568411e-06 
1.262626e-01 5.000000e-06 3.058064e-01 9.256338e-02 9.313653e-04 4.519582e-11 7.916309e-04 2.837465e-11 5.098610e-24 2.923566e-17 1.234314e-20 8.532680e-19 5.189932e-16 7.396306e+00 2.700192e-05 1.553491e+03 1.554130e+03 4.000928e-01 1.794612e+05 1.745344e+06 1.100697e-05 
1.515152e-01 0.000000e+00 3.196777e-01 9.680974e-02 1.014893e-03 2.708618e-11 7.693568e-04 2.940296e-11 2.440146e-24 1.207603e-17 2.339262e-20 8.339368e-19 5.377250e-16 0.000000e+00 0.000000e+00 1.482399e+03 1.482399e+03 4.182717e-01 1.790069e+05 1.657581e+06 6.004380e-06 
1.515152e-01 5.000000e-06 3.157515e-01 9.562065e-02 1.002440e-03 2.831347e-11 7.599782e-04 2.904239e-11 2.644858e-24 1.251676e-17 1.247892e-20 8.355548e-19 5.312328e-16 6.239279e+00 -5.197705e-05 1.500898e+03 1.501428e+03 4.131346e-01 1.790148e+05 1.680061e+06 1.187961e-05 
1.767677e-01 0.000000e+00 3.245191e-01 9.830602e-02 1.080371e-03 2.144442e-11 7.397550e-04 2.986296e-11 1.732583e-24 7.676420e-18 1.205738e-20 8.253809e-19 5.461286e-16 1.110223e-16 0.000000e+00 1.456674e+03 1.456674e+03 4.246453e-01 1.785648e+05 1.625378e+06 6.222599e-06 
1.767677e-01 5.000000e-06 3.206874e-01 9.714521e-02 1.067626e-03 2.239824e-11 7.310956e-04 2.951103e-11 1.878658e-24 7.960243e-18 1.220733e-20 8.240932e-19 5.397854e-16 5.902700e+00 -4.363332e-05 1.474133e+03 1.474610e+03 4.196313e-01 1.785714e+05 1.646550e+06 1.231747e-05 
2.020202e-01 0.000000e+00 3.272357e-01 9.915220e-02 1.144293e-03 1.857257e-11 7.163924e-04 3.032722e-11 1.390284e-24 5.632097e-18 1.205372e-20 8.205982e-19 5.546457e-16 0.000000e+00 0.000000e+00 1.440004e+03 1.440004e+03 4.282485e-01 1.780075e+05 1.604564e+06 6.334797e-06 
2.020202e-01 5.000000e-06 3.234711e-01 9.801146e-02 1.131141e-03 1.938994e-11 7.082261e-04 2.997912e-11 1.509351e-24 5.844494e-18 1.216057e-20 8.204991e-19 5.483083e-16 5.821671e+00 -2.797763e-05 1.456812e+03 1.457259e+03 4.233219e-01 1.780136e+05 1.624918e+06 1.254396e-05 
2.272727e-01 0.000000e+00 3.289595e-01 9.969092e-02 1.205261e-03 1.667921e-11 6.965895e-04 3.078072e-11 1.170698e-24 4.407197e-18 1.203890e-20 8.167727e-19 5.629491e-16 0.000000e+00 1.355253e-20 1.427228e+03 1.427228e+03 4.305523e-01 1.773679e+05 1.588680e+06 6.402234e-06 
2.272727e-01 5.000000e-06 3.252507e-01 9.856690e-02 1.191689e-03 1.740776e-11 6.888100e-04 3.043461e-11 1.270609e-24 4.575768e-18 1.215325e-20 8.161387e-19 5.566419e-16 5.813973e+00 -2.940940e-05 1.443549e+03 1.443976e+03 4.256981e-01 1.773737e+05 1.608421e+06 1.268106e-05 
2.525253e-01 0.000000e+00 3.301034e-01 1.000466e-01 1.262252e-03 1.524776e-11 6.787578e-04 3.118584e-11 1.012249e-24 3.581302e-18 1.203663e-20 8.128778e-19 5.703162e-16 -1.110223e-16 -1.355253e-20 1.416643e+03 1.416643e+03 4.320911e-01 1.766738e+05 1.575555e+06 6.449788e-06 
2.525253e-01 5.000000e-06 3.264441e-01 9.893746e-02 1.248278e-03 1.590984e-11 6.713058e-04 3.084116e-11 1.098044e-24 3.719885e-18 1.213406e-20 8.120765e-19 5.641064e-16 5.826635e+00 -3.452042e-05 1.432568e+03 1.432978e+03 4.273011e-01 1.766793e+05 1.594799e+06 1.277829e-05 
2.777778e-01 0.000000e+00 3.308245e-01 1.002690e-01 1.315152e-03 1.411983e-11 6.625570e-04 3.152986e-11 9.019638e-25 2.991861e-18 2.337625e-20 8.133176e-19 5.766099e-16 0.000000e+00 -1.355253e-20 1.407701e+03 1.407701e+03 4.330712e-01 1.759502e+05 1.564496e+06 6.484175e-06 
2.777778e-01 5.000000e-06 3.272095e-01 9.917327e-02 1.300803e-03 1.472993e-11 6.553876e-04 3.118646e-11 9.793421e-25 3.112496e-18 1.227781e-20 8.172384e-19 5.704028e-16 5.844102e+00 -4.371709e-05 1.423296e+03 1.423693e+03 4.283390e-01 1.759555e+05 1.583326e+06 1.284903e-05 
3.030303e-01 0.000000e+00 3.312061e-01 1.003862e-01 1.364170e-03 1.322185e-11 6.478656e-04 3.181199e-11 8.169921e-25 2.565122e-18 1.198316e-20 8.198046e-19 5.817814e-16 0.000000e+00 0.000000e+00 1.400142e+03 1.400142e+03 4.336043e-01 1.752150e+05 1.555169e+06 6.507712e-06 
3.030303e-01 5.000000e-06 3.276310e-01 9.930248e-02 1.349470e-03 1.379081e-11 6.409408e-04 3.146983e-11 8.873855e-25 2.667284e-18 1.208734e-20 8.201874e-19 5.755604e-16 5.865743e+00 -5.690119e-05 1.415462e+03 1.415848e+03 4.289239e-01 1.752201e+05 1.573654e+06 1.289793e-05 
3.282828e-01 0.000000e+00 3.313248e-01 1.004223e-01 1.409591e-03 1.249758e-11 6.345028e-04 3.203601e-11 7.481225e-25 2.244781e-18 5.838450e-22 8.241541e-19 5.859068e-16 0.000000e+00 -1.355253e-20 1.393727e+03 1.393727e+03 4.337912e-01 1.744822e+05 1.547272e+06 6.522698e-06 
3.282828e-01 5.000000e-06 3.277856e-01 9.934950e-02 1.394562e-03 1.303351e-11 6.277913e-04 3.169511e-11 8.122947e-25 2.332031e-18 1.191394e-20 8.204549e-19 5.796743e-16 5.893404e+00 -6.852115e-05 1.408815e+03 1.409192e+03 4.291575e-01 1.744872e+05 1.565468e+06 1.292958e-05 
3.535354e-01 0.000000e+00 3.312774e-01 1.004067e-01 1.451651e-03 1.188800e-11 6.221943e-04 3.220529e-11 6.932107e-25 1.989592e-18 1.197417e-20 8.211242e-19 5.890167e-16 0.000000e+00 -1.355253e-20 1.388129e+03 1.388129e+03 4.337579e-01 1.737636e+05 1.540393e+06 6.533020e-06 
3.535354e-01 5.000000e-06 3.277709e-01 9.934383e-02 1.436317e-03 1.239625e-11 6.156728e-04 3.186578e-11 7.526063e-25 2.069923e-18 1.206056e-20 8.213560e-19 5.828219e-16 5.926153e+00 -7.346794e-05 1.403019e+03 1.403387e+03 4.291667e-01 1.737685e+05 1.558339e+06 1.295176e-05 
3.787879e-01 0.000000e+00 3.311637e-01 1.003696e-01 1.490520e-03 1.133927e-11 6.106374e-04 3.231685e-11 6.439279e-25 1.782102e-18 1.196195e-20 8.196010e-19 5.910581e-16 0.000000e+00 0.000000e+00 1.383005e+03 1.383005e+03 4.336345e-01 1.730687e+05 1.534098e+06 6.543127e-06 
3.787879e-01 5.000000e-06 3.276878e-01 9.931606e-02 1.474909e-03 1.182272e-11 6.042905e-04 3.197910e-11 6.990357e-25 1.854224e-18 1.205449e-20 8.197841e-19 5.849380e-16 5.955025e+00 -7.860263e-05 1.397713e+03 1.398074e+03 4.290831e-01 1.730734e+05 1.551817e+06 1.297335e-05 
4.040404e-01 0.000000e+00 3.310476e-01 1.003309e-01 1.526282e-03 1.082128e-11 5.995937e-04 3.236392e-11 6.018045e-25 1.604721e-18 1.196095e-20 8.201583e-19 5.919264e-16 0.000000e+00 1.355253e-20 1.378145e+03 1.378145e+03 4.335043e-01 1.724049e+05 1.528121e+06 6.555873e-06 
4.040404e-01 5.000000e-06 3.276007e-01 9.928612e-02 1.510427e-03 1.128147e-11 5.934111e-04 3.202844e-11 6.531013e-25 1.670045e-18 1.204287e-20 8.202477e-19 5.858777e-16 5.969505e+00 -8.724871e-05 1.392683e+03 1.393037e+03 4.289906e-01 1.724096e+05 1.545627e+06 1.300005e-05 
4.292929e-01 0.000000e+00 3.309591e-01 1.003001e-01 1.558971e-03 1.032367e-11 5.889046e-04 3.234764e-11 5.632564e-25 1.448170e-18 2.336912e-20 8.162933e-19 5.916488e-16 0.000000e+00 0.000000e+00 1.373478e+03 1.373478e+03 4.334072e-01 1.717789e+05 1.522368e+06 6.572417e-06 
4.292929e-01 5.000000e-06 3.275397e-01 9.926377e-02 1.542903e-03 1.076163e-11 5.828786e-04 3.201497e-11 6.110169e-25 1.510594e-18 1.218188e-20 8.201870e-19 5.856396e-16 5.967229e+00 -9.547655e-05 1.387854e+03 1.388203e+03 4.289292e-01 1.717835e+05 1.539671e+06 1.303419e-05 
4.545455e-01 0.000000e+00 3.309138e-01 1.002825e-01 1.588623e-03 9.844086e-12 5.784750e-04 3.227866e-11 5.288963e-25 1.315166e-18 2.336820e-20 8.172796e-19 5.904405e-16 0.000000e+00 0.000000e+00 1.368987e+03 1.368987e+03 4.333634e-01 1.711963e+05 1.516812e+06 6.593093e-06 
4.545455e-01 5.000000e-06 3.275202e-01 9.925398e-02 1.572373e-03 1.026076e-11 5.725994e-04 3.194920e-11 5.741661e-25 1.372091e-18 1.217047e-20 8.219339e-19 5.843826e-16 5.951328e+00 -1.032918e-04 1.383208e+03 1.383553e+03 4.289191e-01 1.712008e+05 1.533922e+06 1.307643e-05 
4.797980e-01 0.000000e+00 3.309225e-01 1.002815e-01 1.615292e-03 9.381832e-12 5.682483e-04 3.216436e-11 5.006027e-25 1.202184e-18 1.193824e-20 8.275740e-19 5.883222e-16 0.000000e+00 0.000000e+00 1.364663e+03 1.364663e+03 4.333876e-01 1.706615e+05 1.511440e+06 6.618000e-06 
4.797980e-01 5.000000e-06 3.275532e-01 9.926038e-02 1.598891e-03 9.778106e-12 5.625176e-04 3.183847e-11 5.426502e-25 1.251699e-18 1.202064e-20 8.270300e-19 5.823046e-16 5.923432e+00 -1.132062e-04 1.378736e+03 1.379076e+03 4.289750e-01 1.706660e+05 1.528364e+06 1.312697e-05 
5.050505e-01 0.000000e+00 3.309946e-01 1.003003e-01 1.639042e-03 8.936158e-12 5.581853e-04 3.200503e-11 4.648894e-25 1.098354e-18 1.193739e-20 8.159588e-19 5.853299e-16 -1.110223e-16 0.000000e+00 1.360493e+03 1.360493e+03 4.334922e-01 1.701777e+05 1.506236e+06 6.647223e-06 
5.050505e-01 5.000000e-06 3.276479e-01 9.928613e-02 1.622517e-03 9.312864e-12 5.525949e-04 3.168305e-11 5.068417e-25 1.145528e-18 1.201088e-20 8.200872e-19 5.794506e-16 5.883445e+00 -1.239215e-04 1.374424e+03 1.374762e+03 4.291092e-01 1.701821e+05 1.522983e+06 1.318599e-05 
5.303030e-01 0.000000e+00 3.311390e-01 1.003421e-01 1.659950e-03 8.506265e-12 5.482614e-04 3.179927e-11 4.335376e-25 1.008469e-18 1.192768e-20 8.080921e-19 5.815375e-16 0.000000e+00 0.000000e+00 1.356465e+03 1.356465e+03 4.336894e-01 1.697476e+05 1.501182e+06 6.680819e-06 
5.303030e-01 5.000000e-06 3.278134e-01 9.933434e-02 1.643329e-03 8.864192e-12 5.428071e-04 3.148155e-11 4.743460e-25 1.051858e-18 1.200605e-20 8.143562e-19 5.757740e-16 5.831820e+00 -1.343978e-04 1.370261e+03 1.370596e+03 4.293339e-01 1.697519e+05 1.517760e+06 1.325361e-05 
5.555556e-01 0.000000e+00 3.313618e-01 1.004088e-01 1.678098e-03 8.091486e-12 5.384616e-04 3.154654e-11 4.115520e-25 9.324930e-19 4.844761e-22 8.160232e-19 5.769324e-16 -1.110223e-16 0.000000e+00 1.352565e+03 1.352565e+03 4.339871e-01 1.693724e+05 1.496261e+06 6.718854e-06 
5.555556e-01 5.000000e-06 3.280556e-01 9.940688e-02 1.661408e-03 8.431381e-12 5.331394e-04 3.123345e-11 4.478198e-25 9.691060e-19 1.186461e-20 8.142012e-19 5.712499e-16 5.769492e+00 -1.448412e-04 1.366230e+03 1.366564e+03 4.296571e-01 1.693766e+05 1.512676e+06 1.332997e-05 
5.808081e-01 0.000000e+00 3.316657e-01 1.005010e-01 1.693576e-03 7.691497e-12 5.287804e-04 3.124877e-11 3.883210e-25 8.618304e-19 4.754249e-22 8.146060e-19 5.715476e-16 0.000000e+00 1.355253e-20 1.348781e+03 1.348781e+03 4.343890e-01 1.690516e+05 1.491460e+06 6.761345e-06 
5.808081e-01 5.000000e-06 3.283776e-01 9.950454e-02 1.676842e-03 8.014078e-12 5.235868e-04 3.094065e-11 4.207060e-25 8.946438e-19 1.186011e-20 8.095486e-19 5.659001e-16 5.697835e+00 -1.554674e-04 1.362320e+03 1.362654e+03 4.300825e-01 1.690557e+05 1.507718e+06 1.341512e-05 
6.060606e-01 0.000000e+00 3.320512e-01 1.006189e-01 1.706488e-03 7.306202e-12 5.192194e-04 3.090951e-11 3.648684e-25 7.980740e-19 4.663733e-22 8.082465e-19 5.653556e-16 1.110223e-16 0.000000e+00 1.345103e+03 1.345103e+03 4.348958e-01 1.687839e+05 1.486768e+06 6.808261e-06 
6.060606e-01 5.000000e-06 3.287796e-01 9.962749e-02 1.689733e-03 7.612174e-12 5.141510e-04 3.060667e-11 3.948228e-25 8.277281e-19 1.185562e-20 8.025968e-19 5.598164e-16 5.617897e+00 -1.657224e-04 1.358521e+03 1.358855e+03 4.306109e-01 1.687880e+05 1.502874e+06 1.350898e-05 
6.313131e-01 0.000000e+00 3.325176e-01 1.007627e-01 1.716963e-03 6.936019e-12 5.097854e-04 3.053302e-11 3.393412e-25 7.331411e-19 1.191194e-20 7.885509e-19 5.584314e-16 0.000000e+00 1.355253e-20 1.341529e+03 1.341529e+03 4.355071e-01 1.685686e+05 1.482182e+06 6.859410e-06 
6.313131e-01 5.000000e-06 3.292612e-01 9.977581e-02 1.700210e-03 7.226090e-12 5.048389e-04 3.023572e-11 3.708328e-25 7.667477e-19 1.198126e-20 7.956567e-19 5.530542e-16 5.531077e+00 -1.765929e-04 1.354829e+03 1.355164e+03 4.312421e-01 1.685727e+05 1.498142e+06 1.361120e-05 
6.565657e-01 0.000000e+00 3.330605e-01 1.009310e-01 1.725123e-03 6.581292e-12 5.004812e-04 3.012337e-11 3.281634e-25 6.847052e-19 1.190356e-20 8.056322e-19 5.509184e-16 0.000000e+00 0.000000e+00 1.338056e+03 1.338056e+03 4.362170e-01 1.684030e+05 1.477702e+06 6.914640e-06 
6.565657e-01 5.000000e-06 3.298179e-01 9.994825e-02 1.708392e-03 6.856179e-12 4.956532e-04 2.983183e-11 3.561459e-25 7.134106e-19 1.197710e-20 8.061553e-19 5.456527e-16 5.438704e+00 -1.868241e-04 1.351243e+03 1.351580e+03 4.319702e-01 1.684070e+05 1.493521e+06 1.372147e-05 
6.818182e-01 0.000000e+00 3.336736e-01 1.011219e-01 1.731092e-03 6.242474e-12 4.913135e-04 2.968445e-11 3.186468e-25 6.430156e-19 4.408566e-22 8.263547e-19 5.428316e-16 1.110223e-16 1.355253e-20 1.334688e+03 1.334688e+03 4.370179e-01 1.682842e+05 1.473333e+06 6.973739e-06 
6.818182e-01 5.000000e-06 3.304436e-01 1.001429e-01 1.714402e-03 6.502901e-12 4.866007e-04 2.939884e-11 3.428864e-25 6.655116e-19 1.184294e-20 8.168933e-19 5.377238e-16 5.343154e+00 -1.974271e-04 1.347766e+03 1.348104e+03 4.327876e-01 1.682881e+05 1.489016e+06 1.383936e-05 
7.070707e-01 0.000000e+00 3.343463e-01 1.013320e-01 1.734972e-03 5.919331e-12 4.822874e-04 2.921961e-11 2.985301e-25 5.965021e-19 1.189863e-20 8.087785e-19 5.343518e-16 0.000000e+00 0.000000e+00 1.331418e+03 1.331418e+03 4.378956e-01 1.682057e+05 1.469070e+06 7.036695e-06 
7.070707e-01 5.000000e-06 3.311278e-01 1.003565e-01 1.718341e-03 6.166003e-12 4.776866e-04 2.894009e-11 3.241329e-25 6.223538e-19 1.195593e-20 8.109847e-19 5.293016e-16 5.245413e+00 -2.061812e-04 1.344390e+03 1.344731e+03 4.336803e-01 1.682096e+05 1.484622e+06 1.396487e-05 
7.323232e-01 0.000000e+00 3.350719e-01 1.015593e-01 1.736903e-03 5.612023e-12 4.734113e-04 2.873230e-11 2.827315e-25 5.570476e-19 2.336005e-20 8.016256e-19 5.254948e-16 0.000000e+00 0.000000e+00 1.328249e+03 1.328249e+03 4.388414e-01 1.681644e+05 1.464916e+06 3.534605e-06 
7.323232e-01 5.000000e-06 3.318638e-01 1.005868e-01 1.720346e-03 5.845642e-12 4.689194e-04 2.845897e-11 3.069957e-25 5.841779e-19 1.206711e-20 8.068388e-19 5.204935e-16 5.145710e+00 -2.133343e-04 1.341119e+03 1.341462e+03 4.346399e-01 1.681683e+05 1.480342e+06 7.014837e-06 
2.525253e-02 1.005010e-05 3.150038e-01 9.522782e-02 8.288105e-04 5.037252e-09 9.795406e-04 3.240701e-11 3.526904e-21 1.873288e-14 1.332051e-20 5.189131e-19 5.929656e-16 6.525065e-02 -6.560539e-02 2.218344e+03 2.223682e+03 4.120400e-01 2.640133e+05 2.584716e+06 3.761438e-06 
0.000000e+00 1.005010e-05 1.860455e-01 5.631683e-02 4.335645e-04 3.771228e-09 5.249232e-04 1.776012e-11 3.174882e-21 1.454196e-14 6.646896e-21 2.345807e-19 3.250351e-16 5.330504e+02 -9.505706e+02 1.312461e+03 1.315035e+03 2.433208e-01 9.222264e+04 2.446499e+06 1.534604e-06 
5.050505e-02 1.005010e-05 2.705479e-01 8.177114e-02 7.556971e-04 1.766147e-09 8.466370e-04 2.682767e-11 4.455084e-22 5.558965e-15 1.342411e-20 6.228809e-19 4.907202e-16 3.713556e+01 1.728746e-02 2.070958e+03 2.076255e+03 3.539214e-01 2.117098e+05 2.397375e+06 5.258143e-06 
7.575758e-02 1.005010e-05 2.620432e-01 7.922210e-02 7.536850e-04 6.089943e-10 7.920000e-04 2.504097e-11 1.114587e-22 1.528810e-15 1.331321e-20 7.573691e-19 4.580016e-16 3.552281e+01 1.557266e-02 1.892727e+03 1.896994e+03 3.428110e-01 1.874015e+05 2.166433e+06 7.105028e-06 
1.010101e-01 1.005010e-05 2.828912e-01 8.557061e-02 8.337080e-04 1.417152e-10 7.980565e-04 2.664168e-11 2.214749e-23 1.847154e-16 1.291837e-20 8.471830e-19 4.873047e-16 2.217792e+01 3.689512e-03 1.694811e+03 1.697189e+03 3.700936e-01 1.811355e+05 1.918950e+06 9.159045e-06 
1.262626e-01 1.005010e-05 3.018093e-01 9.135332e-02 9.192177e-04 5.101185e-11 7.814801e-04 2.800523e-11 6.070042e-24 3.276004e-17 1.261941e-20 8.499596e-19 5.123088e-16 1.478361e+01 5.394602e-04 1.574110e+03 1.575252e+03 3.948633e-01 1.794664e+05 1.770600e+06 1.075080e-05 
1.515152e-01 1.005010e-05 3.119122e-01 9.445775e-02 9.902726e-04 3.174505e-11 7.509601e-04 2.869105e-11 3.151926e-24 1.402502e-17 1.247892e-20 8.344904e-19 5.248733e-16 1.248023e+01 1.247183e-04 1.519381e+03 1.520316e+03 4.081112e-01 1.790159e+05 1.702618e+06 1.162427e-05 
1.767677e-01 1.005010e-05 3.169354e-01 9.600837e-02 1.055162e-03 2.504581e-11 7.227697e-04 2.916786e-11 2.238582e-24 8.921754e-18 1.240620e-20 8.234706e-19 5.335494e-16 1.180716e+01 5.668481e-05 1.491587e+03 1.492427e+03 4.147217e-01 1.785718e+05 1.667805e+06 1.206469e-05 
2.020202e-01 1.005010e-05 3.197819e-01 9.689339e-02 1.118278e-03 2.164820e-11 7.003744e-04 2.963972e-11 1.798278e-24 6.554270e-18 1.235944e-20 8.203740e-19 5.421204e-16 1.164391e+01 6.383754e-05 1.473620e+03 1.474406e+03 4.184939e-01 1.780138e+05 1.645355e+06 1.229515e-05 
2.272727e-01 1.005010e-05 3.216142e-01 9.746461e-02 1.178414e-03 1.941359e-11 6.813303e-04 3.009727e-11 1.513677e-24 5.132914e-18 1.779199e-20 8.143656e-19 5.504655e-16 1.162817e+01 5.250717e-05 1.459871e+03 1.460621e+03 4.209386e-01 1.773738e+05 1.628247e+06 1.243655e-05 
2.525253e-01 1.005010e-05 3.228545e-01 9.784930e-02 1.234613e-03 1.772751e-11 6.641404e-04 3.050537e-11 1.307648e-24 4.174275e-18 1.777280e-20 8.102502e-19 5.579562e-16 1.165346e+01 3.779290e-05 1.448495e+03 1.449217e+03 4.226026e-01 1.766794e+05 1.614127e+06 1.253787e-05 
2.777778e-01 1.005010e-05 3.236622e-01 9.809790e-02 1.286774e-03 1.640104e-11 6.484930e-04 3.085209e-11 1.166757e-24 3.495344e-18 1.227781e-20 8.182920e-19 5.643137e-16 1.168863e+01 1.530539e-05 1.438895e+03 1.439593e+03 4.236954e-01 1.759556e+05 1.602240e+06 1.261244e-05 
3.030303e-01 1.005010e-05 3.241219e-01 9.823868e-02 1.335100e-03 1.534626e-11 6.342801e-04 3.113682e-11 1.057109e-24 2.996540e-18 1.225467e-20 8.214575e-19 5.695062e-16 1.173237e+01 -1.538601e-05 1.430786e+03 1.431465e+03 4.243300e-01 1.752201e+05 1.592223e+06 1.266489e-05 
3.282828e-01 1.005010e-05 3.243110e-01 9.829615e-02 1.379874e-03 1.449636e-11 6.213343e-04 3.136347e-11 9.671951e-25 2.620707e-18 1.224492e-20 8.215496e-19 5.736273e-16 1.178836e+01 -4.372673e-05 1.423908e+03 1.424572e+03 4.246084e-01 1.744872e+05 1.583747e+06 1.269983e-05 
3.535354e-01 1.005010e-05 3.243278e-01 9.830004e-02 1.421334e-03 1.378174e-11 6.093971e-04 3.153564e-11 8.963142e-25 2.326745e-18 1.222420e-20 8.229941e-19 5.767907e-16 1.185468e+01 -5.833342e-05 1.417912e+03 1.418561e+03 4.246586e-01 1.737685e+05 1.576368e+06 1.272500e-05 
3.787879e-01 1.005010e-05 3.242742e-01 9.828122e-02 1.459660e-03 1.313910e-11 5.981811e-04 3.165079e-11 8.322544e-25 2.084783e-18 1.221174e-20 8.214836e-19 5.789589e-16 1.191337e+01 -7.089934e-05 1.412426e+03 1.413061e+03 4.246132e-01 1.730735e+05 1.569619e+06 1.274928e-05 
4.040404e-01 1.005010e-05 3.242149e-01 9.825979e-02 1.494943e-03 1.253311e-11 5.874583e-04 3.170246e-11 7.774576e-25 1.877757e-18 1.220012e-20 8.220781e-19 5.799591e-16 1.194336e+01 -9.046968e-05 1.407226e+03 1.407849e+03 4.245571e-01 1.724096e+05 1.563215e+06 1.277836e-05 
4.292929e-01 1.005010e-05 3.241804e-01 9.824549e-02 1.527215e-03 1.195161e-11 5.770751e-04 3.169178e-11 7.274958e-25 1.698199e-18 1.218188e-20 8.224239e-19 5.797609e-16 1.193988e+01 -1.111552e-04 1.402235e+03 1.402849e+03 4.245301e-01 1.717835e+05 1.557056e+06 1.281454e-05 
4.545455e-01 1.005010e-05 3.241858e-01 9.824328e-02 1.556512e-03 1.139179e-11 5.669393e-04 3.162920e-11 6.834811e-25 1.542322e-18 1.217047e-20 8.242859e-19 5.785594e-16 1.190919e+01 -1.324688e-04 1.397435e+03 1.398041e+03 4.245525e-01 1.712008e+05 1.551112e+06 1.285849e-05 
4.797980e-01 1.005010e-05 3.242421e-01 9.825679e-02 1.582885e-03 1.085271e-11 5.569957e-04 3.152198e-11 6.463775e-25 1.407618e-18 1.217106e-20 8.306109e-19 5.765552e-16 1.185455e+01 -1.588107e-04 1.392814e+03 1.393414e+03 4.246388e-01 1.706660e+05 1.545369e+06 1.291044e-05 
5.050505e-01 1.005010e-05 3.243586e-01 9.828917e-02 1.606396e-03 1.033344e-11 5.472067e-04 3.137043e-11 6.023364e-25 1.286904e-18 1.216130e-20 8.217554e-19 5.737845e-16 1.177574e+01 -1.872033e-04 1.388362e+03 1.388956e+03 4.248014e-01 1.701821e+05 1.539810e+06 1.297057e-05 
5.303030e-01 1.005010e-05 3.245443e-01 9.834352e-02 1.627119e-03 9.833003e-12 5.375486e-04 3.117314e-11 5.627284e-25 1.180415e-18 1.214864e-20 8.145288e-19 5.702085e-16 1.167365e+01 -2.159032e-04 1.384063e+03 1.384654e+03 4.250525e-01 1.697520e+05 1.534416e+06 1.303901e-05 
5.555556e-01 1.005010e-05 3.248052e-01 9.842172e-02 1.645134e-03 9.350550e-12 5.280070e-04 3.092961e-11 5.320982e-25 1.088293e-18 1.214590e-20 8.159062e-19 5.657814e-16 1.155011e+01 -2.452192e-04 1.379902e+03 1.380491e+03 4.254000e-01 1.693766e+05 1.529169e+06 1.311592e-05 
5.808081e-01 1.005010e-05 3.251443e-01 9.852459e-02 1.660529e-03 8.885643e-12 5.185771e-04 3.064171e-11 5.001007e-25 1.004467e-18 1.213378e-20 8.108999e-19 5.605055e-16 1.140785e+01 -2.753438e-04 1.375867e+03 1.376455e+03 4.258480e-01 1.690558e+05 1.524053e+06 1.320134e-05 
6.060606e-01 1.005010e-05 3.255621e-01 9.865231e-02 1.673406e-03 8.438120e-12 5.092607e-04 3.031292e-11 4.693472e-25 9.294807e-19 1.212481e-20 8.044258e-19 5.544779e-16 1.124898e+01 -3.050384e-04 1.371946e+03 1.372536e+03 4.263970e-01 1.687880e+05 1.519057e+06 1.329524e-05 
6.313131e-01 1.005010e-05 3.260581e-01 9.880498e-02 1.683889e-03 8.008419e-12 5.000649e-04 2.994742e-11 4.396644e-25 8.594022e-19 1.211549e-20 7.956058e-19 5.478002e-16 1.107627e+01 -3.365387e-04 1.368138e+03 1.368729e+03 4.270471e-01 1.685727e+05 1.514178e+06 1.339725e-05 
6.565657e-01 1.005010e-05 3.266280e-01 9.898137e-02 1.692098e-03 7.596895e-12 4.909923e-04 2.954918e-11 4.221622e-25 7.979684e-19 1.211376e-20 8.047551e-19 5.405240e-16 1.089239e+01 -3.668313e-04 1.364439e+03 1.365034e+03 4.277924e-01 1.684071e+05 1.509415e+06 1.350710e-05 
6.818182e-01 1.005010e-05 3.272656e-01 9.917963e-02 1.698153e-03 7.204036e-12 4.820498e-04 2.912203e-11 4.075727e-25 7.448882e-19 1.210269e-20 8.178036e-19 5.326986e-16 1.070201e+01 -3.976945e-04 1.360853e+03 1.361451e+03 4.286255e-01 1.682882e+05 1.504773e+06 1.362436e-05 
7.070707e-01 1.005010e-05 3.279607e-01 9.939643e-02 1.702154e-03 6.829525e-12 4.732427e-04 2.866925e-11 3.852206e-25 6.963688e-19 1.207902e-20 8.124674e-19 5.243890e-16 1.050717e+01 -4.240566e-04 1.357373e+03 1.357975e+03 4.295325e-01 1.682096e+05 1.500246e+06 1.374903e-05 
7.323232e-01 1.005010e-05 3.287066e-01 9.962967e-02 1.704237e-03 6.473515e-12 4.645793e-04 2.819422e-11 3.655984e-25 6.540563e-19 1.206711e-20 8.110138e-19 5.157154e-16 1.030838e+01 -4.474476e-04 1.354000e+03 1.354608e+03 4.305050e-01 1.681683e+05 1.495839e+06 1.036662e-05 
2.525253e-02 1.520090e-05 3.071709e-01 9.285935e-02 8.083140e-04 6.757724e-09 9.556632e-04 3.160319e-11 6.407989e-21 2.300439e-14 1.332051e-20 5.019347e-19 5.783491e-16 1.162651e+00 -1.096623e-01 2.274804e+03 2.281927e+03 4.017942e-01 2.640010e+05 2.657224e+06 3.578565e-06 
0.000000e+00 1.520090e-05 1.815828e-01 5.496709e-02 4.222883e-04 5.097461e-09 5.115411e-04 1.729917e-11 5.838308e-21 1.794501e-14 6.646896e-21 2.267366e-19 3.166675e-16 5.268872e+02 -9.506142e+02 1.343333e+03 1.346557e+03 2.374837e-01 9.212726e+04 2.512685e+06 1.453215e-06 
5.050505e-02 1.520090e-05 2.645447e-01 7.995648e-02 7.389978e-04 2.292375e-09 8.280777e-04 2.623137e-11 6.948141e-22 6.669983e-15 1.338443e-20 6.036122e-19 4.798575e-16 5.499059e+01 2.227979e-02 2.117854e+03 2.125501e+03 3.460682e-01 2.117000e+05 2.457775e+06 5.036804e-06 
7.575758e-02 1.520090e-05 2.571829e-01 7.775253e-02 7.397539e-04 7.620444e-10 7.774795e-04 2.457686e-11 1.470049e-22 1.799728e-15 1.326070e-20 7.393450e-19 4.495741e-16 5.302689e+01 2.292220e-02 1.928904e+03 1.935151e+03 3.364526e-01 1.874413e+05 2.212247e+06 6.861920e-06 
1.010101e-01 1.520090e-05 2.786569e-01 8.428952e-02 8.212774e-04 1.678838e-10 7.863520e-04 2.624475e-11 2.692229e-23 2.173242e-16 1.290554e-20 8.337487e-19 4.801456e-16 3.324967e+01 6.052582e-03 1.720795e+03 1.724168e+03 3.645540e-01 1.811599e+05 1.951190e+06 8.910996e-06 
1.262626e-01 1.520090e-05 2.978887e-01 9.016625e-02 9.073161e-04 5.872883e-11 7.716628e-04 2.764410e-11 7.339072e-24 3.856051e-17 1.263492e-20 8.399389e-19 5.058176e-16 2.223134e+01 9.834514e-04 1.594872e+03 1.596405e+03 3.897339e-01 1.794716e+05 1.796107e+06 1.050047e-05 
1.515152e-01 1.520090e-05 3.081326e-01 9.331277e-02 9.783107e-04 3.623934e-11 7.422295e-04 2.834659e-11 3.803585e-24 1.648162e-17 1.231708e-20 8.256343e-19 5.186740e-16 1.878328e+01 1.046444e-04 1.538027e+03 1.539262e+03 4.031659e-01 1.790171e+05 1.725431e+06 1.137361e-05 
1.767677e-01 1.520090e-05 3.132360e-01 9.488734e-02 1.042895e-03 2.849266e-11 7.147099e-04 2.883120e-11 2.696845e-24 1.047499e-17 1.222885e-20 8.152720e-19 5.274726e-16 1.777096e+01 -9.354898e-05 1.509205e+03 1.510309e+03 4.098810e-01 1.785722e+05 1.689311e+06 1.181601e-05 
2.020202e-01 1.520090e-05 3.161414e-01 9.578993e-02 1.105617e-03 2.457744e-11 6.927742e-04 2.930685e-11 2.164683e-24 7.693009e-18 1.239241e-20 8.127859e-19 5.360911e-16 1.752359e+01 -1.139088e-04 1.490590e+03 1.491622e+03 4.137298e-01 1.780140e+05 1.666040e+06 1.205005e-05 
2.272727e-01 1.520090e-05 3.180235e-01 9.637606e-02 1.165352e-03 2.200855e-11 6.740902e-04 2.976662e-11 1.822895e-24 6.026068e-18 1.238434e-20 8.097103e-19 5.444512e-16 1.749938e+01 -1.412003e-04 1.476355e+03 1.477339e+03 4.162391e-01 1.773740e+05 1.648317e+06 1.219544e-05 
2.525253e-01 1.520090e-05 3.193085e-01 9.677421e-02 1.221172e-03 2.007424e-11 6.572044e-04 3.017649e-11 1.573824e-24 4.898227e-18 1.780656e-20 8.037819e-19 5.519432e-16 1.753739e+01 -1.686412e-04 1.464581e+03 1.465528e+03 4.179611e-01 1.766796e+05 1.633697e+06 1.230062e-05 
2.777778e-01 1.520090e-05 3.201568e-01 9.703505e-02 1.272980e-03 1.855504e-11 6.418182e-04 3.052483e-11 1.402677e-24 4.098129e-18 1.777162e-20 8.097724e-19 5.583510e-16 1.759064e+01 -2.071640e-04 1.454649e+03 1.455567e+03 4.191067e-01 1.759557e+05 1.621393e+06 1.237880e-05 
3.030303e-01 1.520090e-05 3.206533e-01 9.718695e-02 1.320977e-03 1.734858e-11 6.278306e-04 3.081113e-11 1.270835e-24 3.513749e-18 1.227410e-20 8.154206e-19 5.636208e-16 1.765711e+01 -2.586364e-04 1.446263e+03 1.447156e+03 4.197890e-01 1.752203e+05 1.611027e+06 1.243463e-05 
3.282828e-01 1.520090e-05 3.208756e-01 9.725452e-02 1.365442e-03 1.637754e-11 6.150805e-04 3.103932e-11 1.162040e-24 3.072090e-18 1.224492e-20 8.156922e-19 5.678211e-16 1.774233e+01 -3.090963e-04 1.439153e+03 1.440024e+03 4.201106e-01 1.744873e+05 1.602258e+06 1.247271e-05 
3.535354e-01 1.520090e-05 3.209228e-01 9.726764e-02 1.406619e-03 1.556197e-11 6.033172e-04 3.121313e-11 1.076623e-24 2.726838e-18 1.224400e-20 8.172198e-19 5.710177e-16 1.784334e+01 -3.391388e-04 1.432956e+03 1.433808e+03 4.202004e-01 1.737686e+05 1.594628e+06 1.250075e-05 
3.787879e-01 1.520090e-05 3.208977e-01 9.725749e-02 1.444688e-03 1.482932e-11 5.922609e-04 3.133025e-11 9.990269e-25 2.442490e-18 1.223154e-20 8.156733e-19 5.731688e-16 1.793308e+01 -3.599284e-04 1.427287e+03 1.428121e+03 4.201921e-01 1.730736e+05 1.587650e+06 1.252761e-05 
4.040404e-01 1.520090e-05 3.208655e-01 9.724430e-02 1.479746e-03 1.413916e-11 5.816882e-04 3.138436e-11 9.328939e-25 2.199078e-18 1.221981e-20 8.163800e-19 5.741788e-16 1.797975e+01 -3.885686e-04 1.421915e+03 1.422734e+03 4.201712e-01 1.724097e+05 1.581030e+06 1.255896e-05 
4.292929e-01 1.520090e-05 3.208565e-01 9.723779e-02 1.511824e-03 1.347761e-11 5.714482e-04 3.137654e-11 8.725870e-25 1.987950e-18 1.222074e-20 8.166152e-19 5.740568e-16 1.797610e+01 -4.203670e-04 1.416761e+03 1.417567e+03 4.201776e-01 1.717836e+05 1.574665e+06 1.259708e-05 