VARIABLES="X" "Y" "rho_N2" "rho_O2" "rho_NO" "rho_N" "rho_O" "rho_NOp" "rho_N2p" "rho_O2p" "rho_Np" "rho_Op" "rho_e" "U" "V" "T" "Tv" "rho" "P" "H" "tau"  
ZONE N= 1761 E= 1671 F=FEPOINT ET=QUADRILATERAL 
2.525253e-02 0.000000e+00 2.018260e-01 6.184381e-02 5.279479e-17 3.265547e-20 1.616989e-12 1.563718e-17 3.712846e-20 1.325364e-17 2.336296e-20 1.073984e-18 1.084425e-21 0.000000e+00 -4.336809e-19 1.341738e+03 1.341738e+03 2.636698e-01 1.019663e+05 1.454393e+06 7.504337e-05 
2.525253e-02 5.000000e-06 1.998549e-01 6.123981e-02 5.225292e-17 3.390096e-20 1.601321e-12 1.547019e-17 3.150940e-20 1.310724e-17 1.234143e-20 1.067612e-18 1.527789e-21 9.928136e+00 -1.700074e-02 1.354969e+03 1.342145e+03 2.610947e-01 1.019661e+05 1.467828e+06 1.472737e-04 
0.000000e+00 5.000000e-06 1.211811e-01 3.713248e-02 2.129028e-17 1.448961e-20 7.293900e-13 5.724683e-18 2.006744e-20 5.186074e-18 6.216449e-21 4.460464e-19 4.502938e-22 5.164130e+02 -5.145187e+02 8.588873e+02 8.493686e+02 1.583136e-01 3.919070e+04 1.380004e+06 5.833483e-05 
0.000000e+00 0.000000e+00 2.146825e-01 6.578331e-02 4.307686e-17 2.759226e-20 1.474138e-12 1.158806e-17 4.674229e-20 1.050656e-17 2.337069e-20 9.024855e-19 2.608650e-26 0.000000e+00 0.000000e+00 1.380434e+03 1.380434e+03 2.804658e-01 1.115897e+05 1.498390e+06 5.951877e-05 
5.050505e-02 0.000000e+00 1.809609e-01 5.545029e-02 7.352891e-17 4.073032e-20 1.816389e-12 2.472327e-17 1.436890e-20 1.965016e-17 2.334941e-20 1.325184e-18 6.281550e-21 -4.440892e-16 1.084202e-19 1.271812e+03 1.271812e+03 2.364112e-01 8.666017e+04 1.370127e+06 1.089386e-04 
5.050505e-02 5.000000e-06 1.793970e-01 5.497107e-02 7.288185e-17 4.163614e-20 1.800801e-12 2.449606e-17 1.201235e-20 1.947006e-17 1.216939e-20 1.322754e-18 3.665394e-21 1.659449e+01 3.558663e-03 1.282907e+03 1.278848e+03 2.343680e-01 8.666070e+04 1.382719e+06 2.141727e-04 
7.575758e-02 0.000000e+00 1.735591e-01 5.318223e-02 1.061090e-16 4.550382e-20 1.939637e-12 3.973176e-17 1.170853e-20 3.184723e-17 2.333651e-20 1.439995e-18 8.791071e-21 2.220446e-16 2.710505e-20 1.199629e+03 1.199629e+03 2.267413e-01 7.839826e+04 1.283546e+06 1.538337e-04 
7.575758e-02 5.000000e-06 1.722495e-01 5.278092e-02 1.053001e-16 4.603773e-20 1.925055e-12 3.941949e-17 9.124635e-21 3.159761e-17 1.197864e-20 1.438599e-18 8.776343e-21 1.460521e+01 2.812010e-03 1.208793e+03 1.208407e+03 2.250304e-01 7.840104e+04 1.294363e+06 3.030006e-04 
1.010101e-01 0.000000e+00 1.761411e-01 5.397341e-02 1.558429e-16 4.700076e-20 2.084297e-12 6.286900e-17 3.441704e-20 5.310098e-17 2.332454e-20 1.454471e-18 1.344627e-20 0.000000e+00 2.710505e-20 1.128020e+03 1.128020e+03 2.301145e-01 7.481514e+04 1.199468e+06 2.076825e-04 
1.010101e-01 5.000000e-06 1.749856e-01 5.361933e-02 1.548047e-16 4.726984e-20 2.070653e-12 6.244130e-17 2.653855e-20 5.274594e-17 1.181130e-20 1.454818e-18 1.152056e-20 1.030667e+01 1.123231e-03 1.135499e+03 1.136212e+03 2.286049e-01 7.481711e+04 1.208345e+06 4.097217e-04 
1.262626e-01 0.000000e+00 1.794820e-01 5.499714e-02 2.107481e-16 4.648944e-20 2.233485e-12 8.863519e-17 4.663458e-20 8.013062e-17 1.169935e-20 1.423776e-18 1.591604e-20 1.110223e-16 -1.355253e-20 1.078683e+03 1.078683e+03 2.344792e-01 7.289988e+04 1.142290e+06 2.567423e-04 
1.262626e-01 5.000000e-06 1.784184e-01 5.467121e-02 2.094643e-16 4.638694e-20 2.220266e-12 8.809051e-17 3.516423e-20 7.964959e-17 1.170856e-20 1.418860e-18 1.462718e-20 7.890122e+00 2.309000e-04 1.085130e+03 1.085828e+03 2.330896e-01 7.290096e+04 1.149887e+06 5.070464e-04 
1.515152e-01 0.000000e+00 1.812453e-01 5.553745e-02 2.584253e-16 4.573355e-20 2.362579e-12 1.111898e-16 2.518525e-20 1.068330e-16 6.981129e-23 1.400966e-18 1.478625e-20 0.000000e+00 0.000000e+00 1.049676e+03 1.049676e+03 2.367828e-01 7.163645e+04 1.108867e+06 2.933353e-04 
1.515152e-01 5.000000e-06 1.802362e-01 5.522823e-02 2.569366e-16 4.536995e-20 2.349437e-12 1.105488e-16 2.973656e-20 1.062240e-16 1.165840e-20 1.390326e-18 2.295980e-20 6.971046e+00 4.425376e-05 1.055563e+03 1.056243e+03 2.354644e-01 7.163712e+04 1.115777e+06 5.796767e-04 
1.767677e-01 0.000000e+00 1.816240e-01 5.565348e-02 2.965716e-16 4.482406e-20 2.467377e-12 1.293104e-16 8.238795e-21 1.358036e-16 1.168483e-20 1.378309e-18 1.633403e-20 1.110223e-16 0.000000e+00 1.032590e+03 1.032590e+03 2.372775e-01 7.061758e+04 1.089213e+06 3.195115e-04 
1.767677e-01 5.000000e-06 1.806503e-01 5.535510e-02 2.949388e-16 4.468488e-20 2.454159e-12 1.285946e-16 2.735601e-20 1.350592e-16 1.166529e-20 1.374301e-18 3.156903e-20 6.602367e+00 1.469219e-05 1.038163e+03 1.038795e+03 2.360054e-01 7.061813e+04 1.095735e+06 6.316401e-04 
2.020202e-01 0.000000e+00 1.814329e-01 5.559491e-02 3.285650e-16 4.441132e-20 2.551936e-12 1.444703e-16 2.967612e-20 1.656655e-16 1.167651e-20 1.371793e-18 2.320700e-20 0.000000e+00 0.000000e+00 1.020662e+03 1.020662e+03 2.370278e-01 6.972840e+04 1.075516e+06 3.404842e-04 
2.020202e-01 5.000000e-06 1.804859e-01 5.530474e-02 3.268091e-16 4.430447e-20 2.538627e-12 1.436934e-16 3.090463e-20 1.647890e-16 1.166115e-20 1.368320e-18 3.443263e-20 6.405575e+00 2.492293e-05 1.026024e+03 1.026611e+03 2.357906e-01 6.972889e+04 1.081774e+06 6.732756e-04 
2.272727e-01 0.000000e+00 1.810164e-01 5.546730e-02 3.566704e-16 4.413745e-20 2.619101e-12 1.577937e-16 2.902118e-20 1.897092e-16 1.167519e-20 1.368849e-18 3.597001e-20 -1.110223e-16 1.355253e-20 1.011243e+03 1.011243e+03 2.364837e-01 6.892635e+04 1.064715e+06 3.588048e-04 
2.272727e-01 5.000000e-06 1.800917e-01 5.518394e-02 3.548085e-16 4.401247e-20 2.605733e-12 1.569645e-16 3.057835e-20 1.887280e-16 1.165506e-20 1.365136e-18 3.261897e-20 6.275804e+00 2.661976e-05 1.016442e+03 1.016996e+03 2.352756e-01 6.892681e+04 1.070771e+06 7.096482e-04 
2.525253e-01 0.000000e+00 1.804720e-01 5.530049e-02 3.821630e-16 4.380193e-20 2.671241e-12 1.699160e-16 2.901903e-20 2.098051e-16 2.330598e-20 1.362882e-18 3.740708e-20 0.000000e+00 0.000000e+00 1.003437e+03 1.003437e+03 2.357725e-01 6.818863e+04 1.055777e+06 3.753236e-04 
2.525253e-01 5.000000e-06 1.795665e-01 5.502301e-02 3.802111e-16 4.385815e-20 2.657851e-12 1.690403e-16 3.033351e-20 2.087413e-16 1.166267e-20 1.365960e-18 3.567489e-20 6.180580e+00 1.925911e-05 1.008504e+03 1.009029e+03 2.345895e-01 6.818907e+04 1.061668e+06 7.424449e-04 
2.777778e-01 0.000000e+00 1.798332e-01 5.510475e-02 4.053377e-16 4.377590e-20 2.710586e-12 1.809441e-16 2.859192e-20 2.274274e-16 1.166895e-20 1.369301e-18 2.856337e-20 1.110223e-16 -1.355253e-20 9.968364e+02 9.968364e+02 2.349380e-01 6.750030e+04 1.048227e+06 3.904069e-04 
2.777778e-01 5.000000e-06 1.789446e-01 5.483245e-02 4.032913e-16 4.370322e-20 2.697207e-12 1.800270e-16 3.012070e-20 2.262924e-16 1.165023e-20 1.367122e-18 4.377657e-20 6.107262e+00 1.660028e-05 1.001793e+03 1.002287e+03 2.337770e-01 6.750072e+04 1.053981e+06 7.723918e-04 
3.030303e-01 0.000000e+00 1.791307e-01 5.488947e-02 4.265607e-16 4.365658e-20 2.738758e-12 1.909954e-16 2.859037e-20 2.431773e-16 1.166817e-20 1.370761e-18 2.505288e-20 0.000000e+00 -1.355253e-20 9.911148e+02 9.911148e+02 2.340201e-01 6.685067e+04 1.041690e+06 4.044136e-04 
3.030303e-01 5.000000e-06 1.782572e-01 5.462183e-02 4.244399e-16 4.355064e-20 2.725421e-12 1.900410e-16 2.994481e-20 2.419808e-16 1.164743e-20 1.367736e-18 4.725892e-20 6.049747e+00 1.432107e-05 9.959769e+02 9.964423e+02 2.328791e-01 6.685107e+04 1.047325e+06 8.002012e-04 
3.282828e-01 0.000000e+00 1.783848e-01 5.466093e-02 4.463322e-16 4.348280e-20 2.756552e-12 2.004018e-16 2.828333e-20 2.575209e-16 2.330362e-20 1.368518e-18 2.889135e-20 0.000000e+00 0.000000e+00 9.860455e+02 9.860455e+02 2.330457e-01 6.623183e+04 1.035902e+06 4.176190e-04 
3.282828e-01 5.000000e-06 1.775253e-01 5.439756e-02 4.441497e-16 4.351856e-20 2.743289e-12 1.994131e-16 2.979182e-20 2.562699e-16 1.165407e-20 1.371815e-18 4.341071e-20 6.004530e+00 1.249570e-05 9.908251e+02 9.912639e+02 2.319229e-01 6.623221e+04 1.041435e+06 8.264199e-04 
3.535354e-01 0.000000e+00 1.776065e-01 5.442243e-02 4.648264e-16 4.373368e-20 2.765108e-12 2.093412e-16 2.828212e-20 2.707772e-16 1.166482e-20 1.383886e-18 2.777006e-20 1.110223e-16 0.000000e+00 9.814815e+02 9.814815e+02 2.320289e-01 6.563763e+04 1.030696e+06 4.302102e-04 
3.535354e-01 5.000000e-06 1.767600e-01 5.416303e-02 4.625646e-16 4.364478e-20 2.751949e-12 2.083201e-16 2.965421e-20 2.694764e-16 1.164487e-20 1.381113e-18 3.963698e-20 5.969361e+00 1.121482e-05 9.861877e+02 9.866025e+02 2.309230e-01 6.563800e+04 1.036137e+06 8.514193e-04 
3.787879e-01 0.000000e+00 1.768012e-01 5.417566e-02 4.820924e-16 4.379858e-20 2.766855e-12 2.176908e-16 4.660584e-20 2.830678e-16 1.166427e-20 1.390779e-18 2.198750e-20 0.000000e+00 0.000000e+00 9.773240e+02 9.773240e+02 2.309768e-01 6.506322e+04 1.025957e+06 4.423167e-04 
3.787879e-01 5.000000e-06 1.759667e-01 5.391997e-02 4.797728e-16 4.369477e-20 2.753820e-12 2.166401e-16 3.103483e-20 2.817262e-16 1.164321e-20 1.387491e-18 3.747588e-20 5.942581e+00 1.029570e-05 9.819639e+02 9.823570e+02 2.298867e-01 6.506358e+04 1.031316e+06 8.754565e-04 
4.040404e-01 0.000000e+00 1.759717e-01 5.392148e-02 4.983160e-16 4.366785e-20 2.764459e-12 2.254936e-16 2.794349e-20 2.945995e-16 2.330196e-20 1.388978e-18 2.378843e-20 1.110223e-16 0.000000e+00 9.735023e+02 9.735023e+02 2.298931e-01 6.450474e+04 1.021604e+06 4.540346e-04 
4.040404e-01 5.000000e-06 1.751487e-01 5.366930e-02 4.959538e-16 4.370027e-20 2.751554e-12 2.244159e-16 2.942671e-20 2.932126e-16 1.164901e-20 1.392461e-18 3.387350e-20 5.922798e+00 9.659859e-06 9.780819e+02 9.784551e+02 2.288180e-01 6.450509e+04 1.026887e+06 8.987219e-04 
4.292929e-01 0.000000e+00 1.751201e-01 5.366053e-02 5.136919e-16 4.372531e-20 2.759176e-12 2.329772e-16 9.191005e-21 3.053490e-16 2.330149e-20 1.395454e-18 2.538996e-20 0.000000e+00 -1.355253e-20 9.699626e+02 9.699626e+02 2.287806e-01 6.395917e+04 1.017574e+06 4.654399e-04 
4.292929e-01 5.000000e-06 1.743080e-01 5.341170e-02 5.112815e-16 4.375727e-20 2.746406e-12 2.318737e-16 2.783242e-20 3.039197e-16 1.164773e-20 1.399164e-18 3.250134e-20 5.908805e+00 9.164402e-06 9.744868e+02 9.748415e+02 2.277197e-01 6.395951e+04 1.022789e+06 9.213667e-04 
4.545455e-01 0.000000e+00 1.742484e-01 5.339343e-02 5.282071e-16 4.367149e-20 2.751031e-12 2.401361e-16 2.785148e-20 3.151686e-16 2.330106e-20 1.398410e-18 1.912146e-20 0.000000e+00 -1.355253e-20 9.666603e+02 9.666603e+02 2.276418e-01 6.342413e+04 1.013817e+06 4.765995e-04 
4.545455e-01 5.000000e-06 1.734467e-01 5.314779e-02 5.257551e-16 4.370324e-20 2.738401e-12 2.390083e-16 2.923216e-20 3.137101e-16 1.164660e-20 1.402167e-18 3.590474e-20 5.899487e+00 8.795668e-06 9.711332e+02 9.714706e+02 2.265945e-01 6.342447e+04 1.018968e+06 9.435235e-04 
4.797980e-01 0.000000e+00 1.733590e-01 5.312090e-02 5.416619e-16 4.360291e-20 2.739907e-12 2.467497e-16 2.769295e-20 3.243268e-16 2.330066e-20 1.400947e-18 1.918296e-20 0.000000e+00 0.000000e+00 9.635593e+02 9.635593e+02 2.264799e-01 6.289798e+04 1.010291e+06 4.875689e-04 
4.797980e-01 5.000000e-06 1.725674e-01 5.287834e-02 5.391719e-16 4.363185e-20 2.727424e-12 2.456002e-16 2.915316e-20 3.228374e-16 1.164559e-20 1.404549e-18 3.638595e-20 5.893848e+00 8.423631e-06 9.679844e+02 9.683053e+02 2.254457e-01 6.289831e+04 1.015382e+06 9.653027e-04 
5.050505e-01 0.000000e+00 1.724546e-01 5.284377e-02 5.542777e-16 4.359076e-20 2.725932e-12 2.529011e-16 8.712676e-21 3.329709e-16 1.166009e-20 1.408066e-18 2.412352e-20 -1.110223e-16 1.355253e-20 9.606306e+02 9.606306e+02 2.252983e-01 6.237967e+04 1.006962e+06 4.983916e-04 
5.050505e-01 5.000000e-06 1.716727e-01 5.260418e-02 5.517400e-16 4.351242e-20 2.713603e-12 2.517318e-16 2.759405e-20 3.314482e-16 1.163927e-20 1.405406e-18 3.299519e-20 5.890964e+00 8.163742e-06 9.650109e+02 9.653161e+02 2.242768e-01 6.237999e+04 1.011998e+06 9.867905e-04 
5.303030e-01 0.000000e+00 1.715389e-01 5.256319e-02 5.664654e-16 4.372464e-20 2.709441e-12 2.589119e-16 8.577422e-21 3.409892e-16 1.933355e-23 1.419879e-18 2.547148e-20 -1.110223e-16 1.355253e-20 9.578513e+02 9.578513e+02 2.241021e-01 6.186893e+04 1.003805e+06 5.090982e-04 
5.303030e-01 5.000000e-06 1.707664e-01 5.232647e-02 5.638695e-16 4.353683e-20 2.697271e-12 2.577232e-16 2.752664e-20 3.394405e-16 1.163323e-20 1.410906e-18 3.147382e-20 5.889809e+00 7.798568e-06 9.621892e+02 9.624796e+02 2.230929e-01 6.186924e+04 1.008788e+06 1.008048e-03 
5.555556e-01 0.000000e+00 1.706178e-01 5.228096e-02 5.782921e-16 4.389851e-20 2.690816e-12 2.648534e-16 2.755625e-20 3.485724e-16 1.165918e-20 1.426895e-18 2.121454e-20 0.000000e+00 1.355253e-20 9.551964e+02 9.551964e+02 2.228988e-01 6.136617e+04 1.000790e+06 5.197237e-04 
5.555556e-01 5.000000e-06 1.698544e-01 5.204704e-02 5.756619e-16 4.381099e-20 2.678810e-12 2.636457e-16 2.892912e-20 3.470048e-16 1.163788e-20 1.424187e-18 3.534484e-20 5.888627e+00 7.317708e-06 9.594942e+02 9.597698e+02 2.219015e-01 6.136647e+04 1.005724e+06 1.029144e-03 
5.808081e-01 0.000000e+00 1.696997e-01 5.199961e-02 5.896396e-16 4.398231e-20 2.670406e-12 2.705610e-16 2.743696e-20 3.557778e-16 1.165851e-20 1.434299e-18 1.760642e-20 -1.110223e-16 1.355253e-20 9.526391e+02 9.526391e+02 2.216993e-01 6.087252e+04 9.978877e+05 5.303066e-04 
5.808081e-01 5.000000e-06 1.689451e-01 5.176840e-02 5.869733e-16 4.387730e-20 2.658567e-12 2.693353e-16 2.886966e-20 3.541879e-16 1.163755e-20 1.430660e-18 4.111503e-20 5.884953e+00 6.923048e-06 9.568985e+02 9.571595e+02 2.207135e-01 6.087282e+04 1.002774e+06 1.050156e-03 
6.060606e-01 0.000000e+00 1.687940e-01 5.172209e-02 6.004173e-16 4.390824e-20 2.648511e-12 2.760064e-16 2.743632e-20 3.626984e-16 1.165819e-20 1.436414e-18 2.527069e-20 0.000000e+00 0.000000e+00 9.501548e+02 9.501548e+02 2.205161e-01 6.038975e+04 9.950694e+05 5.408789e-04 
6.060606e-01 5.000000e-06 1.680480e-01 5.149351e-02 5.977249e-16 4.380649e-20 2.636843e-12 2.747643e-16 2.880106e-20 3.610878e-16 1.163688e-20 1.432978e-18 4.116477e-20 5.876649e+00 6.941141e-06 9.543772e+02 9.546237e+02 2.195415e-01 6.039004e+04 9.999092e+05 1.071148e-03 
6.313131e-01 0.000000e+00 1.679119e-01 5.145180e-02 6.110444e-16 4.416779e-20 2.625399e-12 2.812994e-16 4.659816e-20 3.694332e-16 1.165759e-20 1.449356e-18 2.686166e-20 0.000000e+00 0.000000e+00 9.477223e+02 9.477223e+02 2.193637e-01 5.992037e+04 9.923110e+05 5.514600e-04 
6.313131e-01 5.000000e-06 1.671742e-01 5.122577e-02 6.083222e-16 4.410006e-20 2.613903e-12 2.800414e-16 3.019311e-20 3.678077e-16 1.163658e-20 1.447280e-18 4.097693e-20 5.862263e+00 6.882484e-06 9.519087e+02 9.521416e+02 2.184000e-01 5.992066e+04 9.971061e+05 1.092157e-03 
6.565657e-01 0.000000e+00 1.670649e-01 5.119226e-02 6.213214e-16 4.426717e-20 2.601317e-12 2.863862e-16 2.726925e-20 3.758612e-16 1.165729e-20 1.457311e-18 3.313954e-20 1.110223e-16 0.000000e+00 9.453245e+02 9.453245e+02 2.182572e-01 5.946728e+04 9.895931e+05 5.620576e-04 
6.565657e-01 5.000000e-06 1.663353e-01 5.096869e-02 6.185647e-16 4.417552e-20 2.589996e-12 2.851132e-16 2.868444e-20 3.742124e-16 1.163597e-20 1.454199e-18 3.520109e-20 5.840403e+00 6.911695e-06 9.494756e+02 9.496956e+02 2.173040e-01 5.946756e+04 9.943444e+05 1.113201e-03 
6.818182e-01 0.000000e+00 1.662653e-01 5.094724e-02 6.313887e-16 4.418026e-20 2.576505e-12 2.914263e-16 2.726865e-20 3.821677e-16 1.165672e-20 1.459575e-18 3.943671e-20 -1.110223e-16 0.000000e+00 9.429475e+02 9.429475e+02 2.172125e-01 5.903383e+04 9.868998e+05 5.726663e-04 
6.818182e-01 5.000000e-06 1.655434e-01 5.072604e-02 6.286012e-16 4.408723e-20 2.565359e-12 2.901389e-16 2.861723e-20 3.805013e-16 1.163569e-20 1.456105e-18 2.765629e-20 5.809817e+00 6.903054e-06 9.470638e+02 9.472717e+02 2.162694e-01 5.903410e+04 9.916079e+05 1.134267e-03 
7.070707e-01 0.000000e+00 1.655252e-01 5.072045e-02 6.416699e-16 4.437363e-20 2.551177e-12 2.965428e-16 4.659635e-20 3.884991e-16 1.501032e-23 1.474247e-18 2.823374e-20 0.000000e+00 -1.355253e-20 9.405803e+02 9.405803e+02 2.162456e-01 5.862351e+04 9.842188e+05 5.832707e-04 
7.070707e-01 5.000000e-06 1.648107e-01 5.050152e-02 6.388459e-16 4.421076e-20 2.540206e-12 2.952408e-16 2.999092e-20 3.868203e-16 1.163108e-20 1.465152e-18 3.076615e-20 5.769520e+00 6.990937e-06 9.446623e+02 9.448592e+02 2.153122e-01 5.862378e+04 9.888843e+05 1.155327e-03 
7.323232e-01 0.000000e+00 1.648561e-01 5.051543e-02 6.520581e-16 4.426042e-20 2.525521e-12 3.017185e-16 4.659576e-20 3.948249e-16 1.165601e-20 1.472003e-18 2.407298e-20 0.000000e+00 0.000000e+00 9.382181e+02 9.382181e+02 2.153715e-01 5.823990e+04 9.815444e+05 2.942857e-04 
7.323232e-01 5.000000e-06 1.641486e-01 5.029865e-02 6.492129e-16 4.416667e-20 2.514726e-12 3.004018e-16 2.992179e-20 3.931291e-16 1.163470e-20 1.468512e-18 3.802425e-20 5.718978e+00 6.916946e-06 9.422660e+02 9.424528e+02 2.144473e-01 5.824017e+04 9.861678e+05 5.829268e-04 
2.525253e-02 1.005010e-05 1.979541e-01 6.065736e-02 5.165176e-17 3.449712e-20 1.586134e-12 1.527769e-17 2.083226e-20 1.294923e-17 1.234143e-20 1.055733e-18 2.175100e-21 2.018605e+01 -3.255029e-02 1.367946e+03 1.342476e+03 2.586114e-01 1.019637e+05 1.481129e+06 1.418194e-04 
0.000000e+00 1.005010e-05 1.201169e-01 3.680639e-02 2.101997e-17 1.490550e-20 7.219048e-13 5.644265e-18 1.244746e-20 5.114550e-18 6.216449e-21 4.395985e-19 4.505150e-22 5.187756e+02 -5.145375e+02 8.659379e+02 8.470242e+02 1.569233e-01 3.916542e+04 1.390380e+06 5.605095e-05 
5.050505e-02 1.005010e-05 1.778785e-01 5.450578e-02 7.216183e-17 4.185753e-20 1.785758e-12 2.424019e-17 2.027447e-20 1.927936e-17 1.216939e-20 1.312065e-18 6.614699e-21 3.302849e+01 1.053851e-02 1.293845e+03 1.285850e+03 2.323843e-01 8.665983e+04 1.395407e+06 2.069601e-04 
7.575758e-02 1.005010e-05 1.709737e-01 5.239000e-02 1.044180e-16 4.604028e-20 1.910889e-12 3.907705e-17 1.661006e-20 3.133799e-17 1.197864e-20 1.429818e-18 9.288026e-21 2.916093e+01 8.226921e-03 1.217840e+03 1.217148e+03 2.233637e-01 7.840280e+04 1.305272e+06 2.938828e-04 
1.010101e-01 1.005010e-05 1.738505e-01 5.327152e-02 1.536899e-16 4.717798e-20 2.057269e-12 6.197924e-17 1.366856e-20 5.237130e-17 1.181130e-20 1.448844e-18 1.100203e-20 2.060864e+01 3.341483e-03 1.142931e+03 1.144371e+03 2.271220e-01 7.481833e+04 1.217285e+06 3.986396e-04 
1.262626e-01 1.005010e-05 1.773678e-01 5.434929e-02 2.081075e-16 4.630290e-20 2.207223e-12 8.750759e-17 1.614250e-20 7.913860e-17 1.173284e-20 1.414539e-18 2.064982e-20 1.579223e+01 9.578101e-04 1.091565e+03 1.092955e+03 2.317171e-01 7.290144e+04 1.157540e+06 4.943602e-04 
1.515152e-01 1.005010e-05 1.792371e-01 5.492209e-02 2.553817e-16 4.530980e-20 2.336440e-12 1.098679e-16 2.414565e-20 1.055818e-16 1.170128e-20 1.386774e-18 3.338173e-20 1.395944e+01 3.899209e-04 1.061449e+03 1.062798e+03 2.341592e-01 7.163727e+04 1.122741e+06 5.658730e-04 
1.767677e-01 1.005010e-05 1.796852e-01 5.505940e-02 2.932301e-16 4.461643e-20 2.441077e-12 1.278382e-16 3.297631e-20 1.342707e-16 1.168390e-20 1.371083e-18 4.282781e-20 1.322471e+01 2.621030e-04 1.043740e+03 1.044991e+03 2.347446e-01 7.061820e+04 1.102308e+06 6.170567e-04 
2.020202e-01 1.005010e-05 1.795468e-01 5.501699e-02 3.249745e-16 4.423937e-20 2.525452e-12 1.428757e-16 3.213023e-20 1.638539e-16 1.167462e-20 1.365254e-18 4.580769e-20 1.283286e+01 2.562787e-04 1.031391e+03 1.032554e+03 2.345638e-01 6.972894e+04 1.088083e+06 6.580721e-04 
2.272727e-01 1.005010e-05 1.791743e-01 5.490284e-02 3.528667e-16 4.395374e-20 2.592499e-12 1.560945e-16 3.178805e-20 1.876872e-16 1.166853e-20 1.362237e-18 4.230219e-20 1.257463e+01 2.468922e-04 1.021647e+03 1.022745e+03 2.340771e-01 6.892685e+04 1.076877e+06 6.939080e-04 
2.525253e-01 1.005010e-05 1.786679e-01 5.474768e-02 3.781737e-16 4.379282e-20 2.644596e-12 1.681238e-16 3.154321e-20 2.076167e-16 1.166267e-20 1.363147e-18 4.385444e-20 1.238521e+01 2.234077e-04 1.013576e+03 1.014616e+03 2.334156e-01 6.818910e+04 1.067609e+06 7.262240e-04 
2.777778e-01 1.005010e-05 1.780627e-01 5.456221e-02 4.011685e-16 4.364875e-20 2.683966e-12 1.790691e-16 3.131364e-20 2.250969e-16 1.166014e-20 1.364239e-18 5.184119e-20 1.223939e+01 2.117308e-04 1.006755e+03 1.007734e+03 2.326249e-01 6.750075e+04 1.059783e+06 7.557326e-04 
3.030303e-01 1.005010e-05 1.773903e-01 5.435618e-02 4.222406e-16 4.350120e-20 2.712225e-12 1.890461e-16 3.113775e-20 2.407236e-16 1.165735e-20 1.364949e-18 5.717456e-20 1.212502e+01 2.020846e-04 1.000845e+03 1.001767e+03 2.317464e-01 6.685110e+04 1.053009e+06 7.831356e-04 
3.282828e-01 1.005010e-05 1.766721e-01 5.413611e-02 4.418803e-16 4.346378e-20 2.730171e-12 1.983839e-16 3.096912e-20 2.549578e-16 1.165407e-20 1.369068e-18 6.281066e-20 1.203514e+01 1.942391e-04 9.956108e+02 9.964799e+02 2.308082e-01 6.623224e+04 1.047015e+06 8.089715e-04 
3.535354e-01 1.005010e-05 1.759194e-01 5.390548e-02 4.602307e-16 4.360344e-20 2.738939e-12 2.072587e-16 3.083151e-20 2.681148e-16 1.165291e-20 1.378485e-18 6.676185e-20 1.196528e+01 1.883862e-04 9.908999e+02 9.917216e+02 2.298249e-01 6.563803e+04 1.041625e+06 8.336063e-04 
3.787879e-01 1.005010e-05 1.751382e-01 5.366609e-02 4.773797e-16 4.366050e-20 2.740935e-12 2.155492e-16 3.103483e-20 2.803210e-16 1.165124e-20 1.384991e-18 6.313082e-20 1.191212e+01 1.839894e-04 9.866098e+02 9.873885e+02 2.288043e-01 6.506361e+04 1.036720e+06 8.572930e-04 
4.040404e-01 1.005010e-05 1.743314e-01 5.341889e-02 4.935059e-16 4.365968e-20 2.738801e-12 2.232981e-16 3.058297e-20 2.917646e-16 1.164901e-20 1.389883e-18 5.451385e-20 1.187291e+01 1.807686e-04 9.826674e+02 9.834068e+02 2.277503e-01 6.450512e+04 1.032216e+06 8.802194e-04 
4.292929e-01 1.005010e-05 1.735015e-01 5.316458e-02 5.087823e-16 4.371692e-20 2.733791e-12 2.307303e-16 3.013847e-20 3.024327e-16 1.164773e-20 1.396573e-18 5.063433e-20 1.184524e+01 1.783270e-04 9.790167e+02 9.797198e+02 2.266661e-01 6.395953e+04 1.028048e+06 9.025342e-04 
4.545455e-01 1.005010e-05 1.726506e-01 5.290384e-02 5.232085e-16 4.366421e-20 2.725929e-12 2.378411e-16 3.038195e-20 3.121910e-16 1.164660e-20 1.399561e-18 5.417531e-20 1.182690e+01 1.765476e-04 9.756117e+02 9.762805e+02 2.255544e-01 6.342449e+04 1.024163e+06 9.243681e-04 
4.797980e-01 1.005010e-05 1.717812e-01 5.263744e-02 5.365829e-16 4.359002e-20 2.715103e-12 2.444116e-16 3.029073e-20 3.212879e-16 1.164559e-20 1.401776e-18 5.091547e-20 1.181590e+01 1.750601e-04 9.724149e+02 9.730511e+02 2.244186e-01 6.289833e+04 1.020518e+06 9.458297e-04 
5.050505e-01 1.005010e-05 1.708961e-01 5.236622e-02 5.491120e-16 4.346895e-20 2.701438e-12 2.505238e-16 2.986352e-20 3.298692e-16 1.164527e-20 1.402296e-18 4.180481e-20 1.181040e+01 1.740656e-04 9.693964e+02 9.700018e+02 2.232623e-01 6.238001e+04 1.017078e+06 9.670043e-04 
5.303030e-01 1.005010e-05 1.699991e-01 5.209137e-02 5.612046e-16 4.349800e-20 2.685269e-12 2.564963e-16 2.978473e-20 3.378362e-16 1.164499e-20 1.407754e-18 3.920330e-20 1.180837e+01 1.731091e-04 9.665323e+02 9.671083e+02 2.220905e-01 6.186926e+04 1.013815e+06 9.879518e-04 
5.555556e-01 1.005010e-05 1.690962e-01 5.181470e-02 5.729620e-16 4.377592e-20 2.666974e-12 2.623998e-16 3.005531e-20 3.453785e-16 1.164364e-20 1.421340e-18 4.351661e-20 1.180631e+01 1.721605e-04 9.637969e+02 9.643440e+02 2.209109e-01 6.136650e+04 1.010701e+06 1.008741e-03 
5.808081e-01 1.005010e-05 1.681957e-01 5.153875e-02 5.842397e-16 4.384355e-20 2.646902e-12 2.680719e-16 2.998490e-20 3.525399e-16 1.164289e-20 1.427714e-18 5.349290e-20 1.179927e+01 1.715555e-04 9.611627e+02 9.616808e+02 2.197344e-01 6.087285e+04 1.007703e+06 1.029447e-03 
6.060606e-01 1.005010e-05 1.673071e-01 5.126646e-02 5.949602e-16 4.377133e-20 2.625350e-12 2.734847e-16 2.991629e-20 3.594194e-16 1.164222e-20 1.429940e-18 6.108753e-20 1.178299e+01 1.718078e-04 9.586042e+02 9.590938e+02 2.185735e-01 6.039007e+04 1.004792e+06 1.050134e-03 
6.313131e-01 1.005010e-05 1.664415e-01 5.100125e-02 6.055268e-16 4.407019e-20 2.602585e-12 2.787460e-16 3.019311e-20 3.661214e-16 1.163708e-20 1.444332e-18 6.166532e-20 1.175457e+01 1.716374e-04 9.560997e+02 9.565621e+02 2.174428e-01 5.992068e+04 1.001944e+06 1.070840e-03 
6.565657e-01 1.005010e-05 1.656105e-01 5.074660e-02 6.157410e-16 4.414527e-20 2.578854e-12 2.838031e-16 2.978350e-20 3.725066e-16 1.163647e-20 1.451120e-18 5.701381e-20 1.171123e+01 1.713309e-04 9.536313e+02 9.540681e+02 2.163571e-01 5.946758e+04 9.991378e+05 1.091581e-03 
6.818182e-01 1.005010e-05 1.648262e-01 5.050628e-02 6.257512e-16 4.405354e-20 2.554393e-12 2.888148e-16 2.971629e-20 3.787782e-16 1.164030e-20 1.452933e-18 5.176237e-20 1.165047e+01 1.705242e-04 9.511849e+02 9.515977e+02 2.153325e-01 5.903413e+04 9.963580e+05 1.112347e-03 
7.070707e-01 1.005010e-05 1.641008e-01 5.028400e-02 6.359670e-16 4.418276e-20 2.529418e-12 2.939022e-16 2.999092e-20 3.850814e-16 1.164014e-20 1.461989e-18 5.631574e-20 1.157030e+01 1.694060e-04 9.487492e+02 9.491399e+02 2.143848e-01 5.862381e+04 9.935915e+05 1.133109e-03 
7.323232e-01 1.005010e-05 1.634456e-01 5.008324e-02 6.463055e-16 4.413985e-20 2.504114e-12 2.990487e-16 2.992179e-20 3.913733e-16 1.163915e-20 1.465424e-18 6.304839e-20 1.146965e+01 1.673341e-04 9.463191e+02 9.466896e+02 2.135289e-01 5.824020e+04 9.908325e+05 8.599657e-04 
2.525253e-02 1.520090e-05 1.961088e-01 6.009192e-02 5.096636e-17 3.426691e-20 1.571290e-12 1.505699e-17 9.222110e-21 1.275774e-17 1.237627e-20 1.031205e-18 1.200200e-21 3.089829e+01 -5.182311e-02 1.380790e+03 1.342719e+03 2.562007e-01 1.019616e+05 1.494414e+06 1.366740e-04 
0.000000e+00 1.520090e-05 1.190909e-01 3.649201e-02 2.070624e-17 1.482635e-20 7.145377e-13 5.550455e-18 5.429895e-21 5.023312e-18 6.232349e-21 4.257294e-19 1.337023e-23 5.216259e+02 -5.145578e+02 8.728706e+02 8.445886e+02 1.555830e-01 3.914177e+04 1.400553e+06 5.392015e-05 
5.050505e-02 1.520090e-05 1.763925e-01 5.405043e-02 7.136142e-17 4.148632e-20 1.771139e-12 2.395454e-17 2.341079e-20 1.906694e-17 1.220560e-20 1.291323e-18 6.077109e-21 4.947586e+01 1.358183e-02 1.304737e+03 1.292885e+03 2.304429e-01 8.665922e+04 1.408331e+06 2.000983e-04 
7.575758e-02 1.520090e-05 1.697210e-01 5.200615e-02 1.034541e-16 4.560275e-20 1.897031e-12 3.870252e-17 2.159006e-20 3.105681e-17 1.200778e-20 1.412245e-18 1.536010e-20 4.381011e+01 1.176683e-02 1.226857e+03 1.225938e+03 2.217271e-01 7.840457e+04 1.316392e+06 2.851476e-04 
1.010101e-01 1.520090e-05 1.727265e-01 5.292710e-02 1.524842e-16 4.676723e-20 2.044040e-12 6.147962e-17 5.337190e-21 5.196298e-17 1.183012e-20 1.435001e-18 2.462782e-20 3.100220e+01 5.239928e-03 1.150387e+03 1.152572e+03 2.256536e-01 7.481950e+04 1.226378e+06 3.879112e-04 
1.262626e-01 1.520090e-05 1.763215e-01 5.402869e-02 2.066490e-16 4.593921e-20 2.194253e-12 8.688155e-17 1.662774e-20 7.858029e-17 1.173980e-20 1.402697e-18 3.974465e-20 2.378212e+01 1.414691e-03 1.098049e+03 1.100132e+03 2.303502e-01 7.290190e+04 1.165323e+06 4.819928e-04 
1.515152e-01 1.520090e-05 1.782397e-01 5.461645e-02 2.537197e-16 4.498080e-20 2.323485e-12 1.091408e-16 1.890537e-20 1.048858e-16 1.170128e-20 1.375880e-18 6.410106e-20 2.103311e+01 4.231969e-04 1.067391e+03 1.069404e+03 2.328561e-01 7.163742e+04 1.129827e+06 5.523704e-04 
1.767677e-01 1.520090e-05 1.787208e-01 5.476389e-02 2.914119e-16 4.431531e-20 2.428028e-12 1.270343e-16 2.166831e-20 1.334189e-16 1.168684e-20 1.360322e-18 7.790719e-20 1.993177e+01 1.809036e-04 1.049373e+03 1.051239e+03 2.334847e-01 7.061828e+04 1.108999e+06 6.027678e-04 
2.020202e-01 1.520090e-05 1.786078e-01 5.472924e-02 3.230285e-16 4.395458e-20 2.512307e-12 1.420097e-16 3.210490e-20 1.628430e-16 1.167756e-20 1.354610e-18 7.929400e-20 1.934485e+01 1.603493e-04 1.036815e+03 1.038549e+03 2.333370e-01 6.972900e+04 1.094507e+06 6.431600e-04 
2.272727e-01 1.520090e-05 1.782565e-01 5.462162e-02 3.508125e-16 4.368114e-20 2.579296e-12 1.551757e-16 3.176273e-20 1.865680e-16 1.167079e-20 1.351695e-18 8.097194e-20 1.895829e+01 1.456315e-04 1.026908e+03 1.028544e+03 2.328782e-01 6.892690e+04 1.083095e+06 6.784580e-04 
2.525253e-01 1.520090e-05 1.777688e-01 5.447216e-02 3.760232e-16 4.353441e-20 2.631377e-12 1.671580e-16 3.147934e-20 2.064123e-16 1.166695e-20 1.352551e-18 7.829736e-20 1.867481e+01 1.110068e-04 1.018704e+03 1.020254e+03 2.322409e-01 6.818914e+04 1.073658e+06 7.102935e-04 
2.777778e-01 1.520090e-05 1.771799e-01 5.429171e-02 3.989329e-16 4.339653e-20 2.670763e-12 1.780616e-16 3.124976e-20 2.238203e-16 1.166217e-20 1.353708e-18 7.433642e-20 1.845663e+01 9.394793e-05 1.011772e+03 1.013232e+03 2.314716e-01 6.750079e+04 1.065691e+06 7.393642e-04 
3.030303e-01 1.520090e-05 1.765223e-01 5.409022e-02 4.199278e-16 4.326168e-20 2.699073e-12 1.880014e-16 3.104866e-20 2.393845e-16 1.165906e-20 1.354641e-18 8.072231e-20 1.828556e+01 7.983550e-05 1.005767e+03 1.007141e+03 2.306126e-01 6.685113e+04 1.058797e+06 7.663613e-04 
3.282828e-01 1.520090e-05 1.758178e-01 5.387433e-02 4.394962e-16 4.323126e-20 2.717103e-12 1.973047e-16 3.088003e-20 2.535631e-16 1.165737e-20 1.358584e-18 8.706382e-20 1.815115e+01 6.844818e-05 1.000449e+03 1.001745e+03 2.296921e-01 6.623228e+04 1.052698e+06 7.918154e-04 
3.535354e-01 1.520090e-05 1.750778e-01 5.364758e-02 4.577828e-16 4.337887e-20 2.725985e-12 2.061468e-16 3.072453e-20 2.666702e-16 1.165450e-20 1.368189e-18 8.795218e-20 1.804673e+01 5.976496e-05 9.956641e+02 9.968892e+02 2.287254e-01 6.563806e+04 1.047214e+06 8.160867e-04 
3.787879e-01 1.520090e-05 1.743084e-01 5.341182e-02 4.748725e-16 4.345419e-20 2.728112e-12 2.144079e-16 3.081385e-20 2.788314e-16 1.165264e-20 1.375180e-18 8.907485e-20 1.796736e+01 5.303566e-05 9.913070e+02 9.924682e+02 2.277202e-01 6.506364e+04 1.042225e+06 8.394245e-04 
4.040404e-01 1.520090e-05 1.735129e-01 5.316807e-02 4.909429e-16 4.345533e-20 2.726114e-12 2.221297e-16 3.046898e-20 2.902330e-16 1.165173e-20 1.379760e-18 9.051931e-20 1.790890e+01 4.789707e-05 9.873035e+02 9.884064e+02 2.266810e-01 6.450515e+04 1.037644e+06 8.620133e-04 
4.292929e-01 1.520090e-05 1.726937e-01 5.291706e-02 5.061672e-16 4.350874e-20 2.721244e-12 2.295362e-16 3.013847e-20 3.008631e-16 1.165032e-20 1.386114e-18 8.880874e-20 1.786775e+01 4.381546e-05 9.835966e+02 9.846454e+02 2.256108e-01 6.395957e+04 1.033406e+06 8.839999e-04 