VARIABLES="X" "Y" "rho_N2" "rho_O2" "rho_NO" "rho_N" "rho_O" "rho_NOp" "rho_N2p" "rho_O2p" "rho_Np" "rho_Op" "rho_e" "U" "V" "T" "Tv" "rho" "P" "H" "tau"  
ZONE N= 1761 E= 1671 F=FEPOINT ET=QUADRILATERAL 
2.525253e-02 0.000000e+00 4.388920e-02 7.811225e-05 3.155408e-03 5.771317e-01 1.897078e-01 5.912695e-04 3.397457e-04 3.689622e-06 7.673754e-03 1.445190e-03 3.680961e-07 1.421085e-14 1.665335e-16 9.434007e+03 9.434007e+03 8.240162e-01 4.399925e+06 4.396394e+07 2.557130e-09 
2.525253e-02 5.000000e-06 2.791008e-02 5.116237e-05 1.962721e-03 4.646228e-01 1.510364e-01 4.261768e-04 2.785345e-04 3.178347e-06 8.684201e-03 1.604206e-03 4.087823e-07 8.581324e+02 -2.202419e+00 1.174522e+04 1.172240e+04 6.565799e-01 4.411763e+06 4.982276e+07 4.916653e-09 
0.000000e+00 5.000000e-06 2.129175e-02 4.597163e-03 5.479355e-04 2.167416e-01 6.882541e-02 1.557307e-04 1.247173e-04 1.500766e-06 5.783489e-03 1.052740e-03 2.680728e-07 5.641134e+03 -5.166655e+03 6.322190e+03 6.324730e+03 3.191223e-01 1.139713e+06 5.296161e+07 2.353248e-09 
0.000000e+00 0.000000e+00 2.111759e-02 5.034112e-05 1.824199e-03 5.511732e-01 1.757898e-01 4.426597e-04 3.121871e-04 3.483874e-06 1.038934e-02 1.919340e-03 4.872687e-07 0.000000e+00 0.000000e+00 9.767156e+03 9.767156e+03 7.630226e-01 4.299699e+06 4.621067e+07 2.455604e-09 
5.050505e-02 0.000000e+00 1.147337e-01 1.538889e-04 6.679197e-03 5.972220e-01 2.156289e-01 8.996023e-04 3.589608e-04 4.079355e-06 3.622161e-03 7.398982e-04 1.916093e-07 0.000000e+00 2.775558e-17 8.825809e+03 8.825809e+03 9.400426e-01 4.487623e+06 3.944564e+07 2.808081e-09 
5.050505e-02 5.000000e-06 7.997874e-02 1.060937e-04 4.477640e-03 5.007131e-01 1.764480e-01 6.882163e-04 3.104821e-04 3.526731e-06 4.165581e-03 8.224011e-04 2.106404e-07 6.732537e+02 -6.349675e-02 1.069625e+04 1.060689e+04 7.677140e-01 4.496766e+06 4.411432e+07 5.453641e-09 
7.575758e-02 0.000000e+00 1.927150e-01 2.315409e-04 1.008315e-02 5.821208e-01 2.332375e-01 1.120118e-03 3.366366e-04 4.330540e-06 1.966312e-03 4.525534e-04 1.206390e-07 1.421085e-14 -2.775558e-17 8.444813e+03 8.444813e+03 1.022268e+00 4.480923e+06 3.597337e+07 3.021789e-09 
7.575758e-02 5.000000e-06 1.411831e-01 1.653308e-04 7.102876e-03 5.008258e-01 1.938460e-01 8.989820e-04 3.050516e-04 3.773680e-06 2.147133e-03 4.752506e-04 1.235537e-07 5.619127e+02 -3.880132e-02 1.005819e+04 9.926074e+03 8.469534e-01 4.483834e+06 3.999801e+07 5.918270e-09 
1.010101e-01 0.000000e+00 2.335495e-01 2.725058e-04 1.172790e-02 5.689438e-01 2.407423e-01 1.198637e-03 3.168480e-04 4.415863e-06 1.560523e-03 3.809742e-04 1.033133e-07 0.000000e+00 0.000000e+00 8.305022e+03 8.305022e+03 1.058697e+00 4.474359e+06 3.445618e+07 3.107554e-09 
1.010101e-01 5.000000e-06 1.746181e-01 1.973797e-04 8.436020e-03 4.934456e-01 2.010156e-01 9.818389e-04 2.927139e-04 3.871171e-06 1.664488e-03 3.910120e-04 1.030130e-07 5.399357e+02 -5.228086e-02 9.841946e+03 9.706037e+03 8.810468e-01 4.476300e+06 3.827670e+07 6.101654e-09 
1.262626e-01 0.000000e+00 2.459257e-01 2.852572e-04 1.221514e-02 5.639198e-01 2.427309e-01 1.218014e-03 3.098361e-04 4.431623e-06 1.460354e-03 3.630395e-04 9.900378e-08 1.421085e-14 0.000000e+00 8.265827e+03 8.265827e+03 1.068432e+00 4.467560e+06 3.401230e+07 3.135177e-09 
1.262626e-01 5.000000e-06 1.849574e-01 2.074619e-04 8.838605e-03 4.900790e-01 2.029267e-01 1.003566e-03 2.877673e-04 3.893025e-06 1.547540e-03 3.704001e-04 9.803936e-08 5.452183e+02 -6.408107e-02 9.783032e+03 9.646871e+03 8.902224e-01 4.469343e+06 3.778130e+07 6.159904e-09 
1.515152e-01 0.000000e+00 2.457530e-01 2.848414e-04 1.219955e-02 5.626444e-01 2.423104e-01 1.216377e-03 3.088959e-04 4.420195e-06 1.452239e-03 3.615844e-04 9.858759e-08 -1.421085e-14 2.775558e-17 8.263898e+03 8.263898e+03 1.066536e+00 4.457888e+06 3.399873e+07 3.143121e-09 
1.515152e-01 5.000000e-06 1.849493e-01 2.072437e-04 8.831023e-03 4.889698e-01 2.026005e-01 1.002955e-03 2.870568e-04 3.885466e-06 1.536940e-03 3.685267e-04 9.753487e-08 5.586601e+02 -7.082792e-02 9.780004e+03 9.642049e+03 8.887575e-01 4.459665e+06 3.776940e+07 6.175869e-09 
1.767677e-01 0.000000e+00 2.418911e-01 2.804596e-04 1.203512e-02 5.623362e-01 2.411307e-01 1.208410e-03 3.095775e-04 4.398720e-06 1.468711e-03 3.644678e-04 9.919878e-08 0.000000e+00 0.000000e+00 8.272325e+03 8.272325e+03 1.061029e+00 4.446130e+06 3.410854e+07 3.146540e-09 
1.767677e-01 5.000000e-06 1.818838e-01 2.039123e-04 8.701485e-03 4.884316e-01 2.015756e-01 9.957083e-04 2.875019e-04 3.867705e-06 1.554534e-03 3.715621e-04 9.820313e-08 5.724022e+02 -7.248248e-02 9.792488e+03 9.652046e+03 8.840096e-01 4.447932e+06 3.789512e+07 6.181875e-09 
2.020202e-01 0.000000e+00 2.382854e-01 2.763059e-04 1.187955e-02 5.617041e-01 2.399164e-01 1.199876e-03 3.097460e-04 4.373032e-06 1.483516e-03 3.668316e-04 9.970363e-08 0.000000e+00 2.775558e-17 8.279434e+03 8.279434e+03 1.055426e+00 4.432516e+06 3.420707e+07 3.152099e-09 
2.020202e-01 5.000000e-06 1.790128e-01 2.007383e-04 8.578440e-03 4.876469e-01 2.005235e-01 9.880507e-04 2.875172e-04 3.846316e-06 1.570546e-03 3.741300e-04 9.877510e-08 5.809336e+02 -7.038397e-02 9.803208e+03 9.660647e+03 8.791865e-01 4.434340e+06 3.800614e+07 6.192040e-09 
2.272727e-01 0.000000e+00 2.364474e-01 2.740085e-04 1.179419e-02 5.603221e-01 2.389803e-01 1.193344e-03 3.086785e-04 4.346949e-06 1.486099e-03 3.668131e-04 9.966064e-08 0.000000e+00 0.000000e+00 8.280763e+03 8.280763e+03 1.051177e+00 4.417673e+06 3.424193e+07 3.161950e-09 
2.272727e-01 5.000000e-06 1.775911e-01 1.990017e-04 8.512189e-03 4.863621e-01 1.997342e-01 9.826835e-04 2.865737e-04 3.825159e-06 1.572916e-03 3.741321e-04 9.874819e-08 5.840863e+02 -6.720650e-02 9.805422e+03 9.661526e+03 8.756189e-01 4.419506e+06 3.804378e+07 6.211079e-09 
2.525253e-01 0.000000e+00 2.358856e-01 2.730438e-04 1.175961e-02 5.584137e-01 2.382481e-01 1.188394e-03 3.067582e-04 4.320944e-06 1.479527e-03 3.650484e-04 9.921044e-08 0.000000e+00 -2.775558e-17 8.277874e+03 8.277874e+03 1.047924e+00 4.402026e+06 3.423035e+07 3.174928e-09 
2.525253e-01 5.000000e-06 1.772244e-01 1.983061e-04 8.487359e-03 4.847293e-01 1.991400e-01 9.790988e-04 2.849667e-04 3.804457e-06 1.564987e-03 3.722286e-04 9.827149e-08 5.843202e+02 -6.587327e-02 9.801337e+03 9.656689e+03 8.729845e-01 4.403856e+06 3.802807e+07 6.236651e-09 
2.777778e-01 0.000000e+00 2.357713e-01 2.726580e-04 1.174654e-02 5.569605e-01 2.377783e-01 1.185220e-03 3.052084e-04 4.302454e-06 1.472973e-03 3.634299e-04 9.880749e-08 1.421085e-14 0.000000e+00 8.274873e+03 8.274873e+03 1.045861e+00 4.390856e+06 3.421190e+07 3.184793e-09 
2.777778e-01 5.000000e-06 1.771993e-01 1.980476e-04 8.479166e-03 4.835119e-01 1.987664e-01 9.769048e-04 2.836631e-04 3.789603e-06 1.557333e-03 3.704948e-04 9.784439e-08 5.837198e+02 -6.032672e-02 9.796954e+03 9.652096e+03 8.713471e-01 4.392680e+06 3.800507e+07 6.256209e-09 
3.030303e-01 0.000000e+00 2.357387e-01 2.725729e-04 1.174360e-02 5.566590e-01 2.376800e-01 1.184507e-03 3.048715e-04 4.298406e-06 1.471727e-03 3.631090e-04 9.872799e-08 -1.421085e-14 0.000000e+00 8.274233e+03 8.274233e+03 1.045422e+00 4.388505e+06 3.420826e+07 3.186870e-09 
3.030303e-01 5.000000e-06 1.771870e-01 1.979914e-04 8.477354e-03 4.832618e-01 1.986891e-01 9.763746e-04 2.833643e-04 3.786161e-06 1.555956e-03 3.701672e-04 9.776361e-08 5.835056e+02 -5.348829e-02 9.795969e+03 9.651237e+03 8.710031e-01 4.390327e+06 3.800047e+07 6.260356e-09 
3.282828e-01 0.000000e+00 2.356956e-01 2.725911e-04 1.174389e-02 5.569982e-01 2.377720e-01 1.185083e-03 3.052360e-04 4.302278e-06 1.473664e-03 3.635536e-04 9.883740e-08 0.000000e+00 0.000000e+00 8.275078e+03 8.275078e+03 1.045814e+00 4.390938e+06 3.421464e+07 3.184588e-09 
3.282828e-01 5.000000e-06 1.771367e-01 1.979969e-04 8.477084e-03 4.835434e-01 1.987613e-01 9.767132e-04 2.836575e-04 3.789124e-06 1.558259e-03 3.706572e-04 9.788308e-08 5.836563e+02 -5.169373e-02 9.797174e+03 9.652573e+03 8.713097e-01 4.392761e+06 3.800811e+07 6.255835e-09 
3.535354e-01 0.000000e+00 2.355923e-01 2.725897e-04 1.174320e-02 5.576156e-01 2.379294e-01 1.186077e-03 3.059098e-04 4.309162e-06 1.477314e-03 3.643804e-04 9.904099e-08 -1.421085e-14 2.775558e-17 8.276683e+03 8.276683e+03 1.046491e+00 4.395297e+06 3.422704e+07 3.180465e-09 
3.535354e-01 5.000000e-06 1.770247e-01 1.979802e-04 8.475616e-03 4.840529e-01 1.988837e-01 9.772854e-04 2.842030e-04 3.794422e-06 1.562564e-03 3.715644e-04 9.810477e-08 5.839833e+02 -5.036159e-02 9.799486e+03 9.655061e+03 8.718345e-01 4.397122e+06 3.802291e+07 6.247652e-09 
3.787879e-01 0.000000e+00 2.354452e-01 2.725910e-04 1.174230e-02 5.585164e-01 2.381602e-01 1.187546e-03 3.068986e-04 4.319307e-06 1.482615e-03 3.655855e-04 9.933737e-08 1.421085e-14 0.000000e+00 8.279027e+03 8.279027e+03 1.047484e+00 4.401674e+06 3.424502e+07 3.174453e-09 
3.787879e-01 5.000000e-06 1.768639e-01 1.979576e-04 8.473525e-03 4.847956e-01 1.990628e-01 9.781456e-04 2.850089e-04 3.802295e-06 1.568791e-03 3.728818e-04 9.842646e-08 5.845195e+02 -4.891892e-02 9.802883e+03 9.658661e+03 8.726025e-01 4.403502e+06 3.804444e+07 6.235707e-09 
4.040404e-01 0.000000e+00 2.353042e-01 2.726288e-04 1.174254e-02 5.595750e-01 2.384411e-01 1.189362e-03 3.080642e-04 4.331549e-06 1.488656e-03 3.669758e-04 9.967908e-08 1.421085e-14 -2.775558e-17 8.281722e+03 8.281722e+03 1.048693e+00 4.409262e+06 3.426518e+07 3.167376e-09 
4.040404e-01 5.000000e-06 1.767004e-01 1.979583e-04 8.472080e-03 4.856690e-01 1.992812e-01 9.792522e-04 2.859673e-04 3.811908e-06 1.575861e-03 3.743934e-04 9.879543e-08 5.852057e+02 -4.876732e-02 9.806812e+03 9.662760e+03 8.735400e-01 4.411096e+06 3.806871e+07 6.221638e-09 
4.292929e-01 0.000000e+00 2.351909e-01 2.726868e-04 1.174357e-02 5.605739e-01 2.387122e-01 1.191130e-03 3.091666e-04 4.343296e-06 1.494243e-03 3.682717e-04 9.999759e-08 0.000000e+00 -2.775558e-17 8.284227e+03 8.284227e+03 1.049860e+00 4.416480e+06 3.428358e+07 3.160701e-09 
4.292929e-01 5.000000e-06 1.765621e-01 1.979758e-04 8.471347e-03 4.864934e-01 1.994922e-01 9.803532e-04 2.868783e-04 3.821191e-06 1.582385e-03 3.757979e-04 9.913826e-08 5.858787e+02 -4.984591e-02 9.810476e+03 9.666546e+03 8.744464e-01 4.418320e+06 3.809096e+07 6.208366e-09 
4.545455e-01 0.000000e+00 2.351010e-01 2.727453e-04 1.174477e-02 5.614331e-01 2.389475e-01 1.192669e-03 3.101158e-04 4.353472e-06 1.499015e-03 3.693815e-04 1.002704e-07 0.000000e+00 -2.775558e-17 8.286365e+03 8.286365e+03 1.050875e+00 4.422712e+06 3.429916e+07 3.154972e-09 
4.545455e-01 5.000000e-06 1.764494e-01 1.979975e-04 8.470965e-03 4.872028e-01 1.996757e-01 9.813194e-04 2.876637e-04 3.829249e-06 1.587954e-03 3.769994e-04 9.943159e-08 5.864622e+02 -5.107179e-02 9.813605e+03 9.669772e+03 8.752346e-01 4.424556e+06 3.810982e+07 6.196975e-09 
4.797980e-01 0.000000e+00 2.350338e-01 2.728020e-04 1.174607e-02 5.621463e-01 2.391450e-01 1.193965e-03 3.109041e-04 4.361981e-06 1.502939e-03 3.702973e-04 1.004955e-07 1.421085e-14 5.551115e-17 8.288122e+03 8.288122e+03 1.051727e+00 4.427904e+06 3.431185e+07 3.150224e-09 
4.797980e-01 5.000000e-06 1.763617e-01 1.980217e-04 8.470881e-03 4.877918e-01 1.998296e-01 9.821398e-04 2.883174e-04 3.836005e-06 1.592529e-03 3.779894e-04 9.967337e-08 5.869493e+02 -5.233078e-02 9.816183e+03 9.672419e+03 8.758969e-01 4.429752e+06 3.812522e+07 6.187534e-09 
5.050505e-01 0.000000e+00 2.349881e-01 2.728494e-04 1.174722e-02 5.626792e-01 2.392939e-01 1.194945e-03 3.114942e-04 4.368388e-06 1.505845e-03 3.709779e-04 1.006629e-07 0.000000e+00 5.551115e-17 8.289427e+03 8.289427e+03 1.052369e+00 4.431798e+06 3.432119e+07 3.146680e-09 
5.050505e-01 5.000000e-06 1.762998e-01 1.980435e-04 8.470958e-03 4.882318e-01 1.999458e-01 9.827666e-04 2.888081e-04 3.841109e-06 1.595913e-03 3.787239e-04 9.985277e-08 5.873162e+02 -5.371729e-02 9.818101e+03 9.674377e+03 8.763966e-01 4.433649e+06 3.813657e+07 6.180484e-09 
5.303030e-01 0.000000e+00 2.349590e-01 2.728852e-04 1.174812e-02 5.630492e-01 2.393981e-01 1.195633e-03 3.119043e-04 4.372864e-06 1.507849e-03 3.714485e-04 1.007786e-07 1.421085e-14 0.000000e+00 8.290328e+03 8.290328e+03 1.052819e+00 4.434510e+06 3.432760e+07 3.144220e-09 
5.303030e-01 5.000000e-06 1.762589e-01 1.980608e-04 8.471092e-03 4.885375e-01 2.000270e-01 9.832095e-04 2.891499e-04 3.844683e-06 1.598243e-03 3.792309e-04 9.997664e-08 5.875720e+02 -5.486267e-02 9.819428e+03 9.675725e+03 8.767464e-01 4.436363e+06 3.814437e+07 6.175590e-09 
5.555556e-01 0.000000e+00 2.349413e-01 2.729102e-04 1.174877e-02 5.632914e-01 2.394667e-01 1.196087e-03 3.121730e-04 4.375807e-06 1.509153e-03 3.717553e-04 1.008540e-07 0.000000e+00 0.000000e+00 8.290914e+03 8.290914e+03 1.053115e+00 4.436289e+06 3.433174e+07 3.142610e-09 
5.555556e-01 5.000000e-06 1.762333e-01 1.980733e-04 8.471224e-03 4.887375e-01 2.000805e-01 9.835037e-04 2.893742e-04 3.847039e-06 1.599756e-03 3.795611e-04 1.000573e-07 5.877400e+02 -5.571464e-02 9.820294e+03 9.676601e+03 8.769768e-01 4.438143e+06 3.814942e+07 6.172388e-09 
5.808081e-01 0.000000e+00 2.349311e-01 2.729267e-04 1.174920e-02 5.634421e-01 2.395095e-01 1.196372e-03 3.123402e-04 4.377645e-06 1.509958e-03 3.719454e-04 1.009008e-07 -1.421085e-14 0.000000e+00 8.291278e+03 8.291278e+03 1.053300e+00 4.437398e+06 3.433430e+07 3.141609e-09 
5.808081e-01 5.000000e-06 1.762180e-01 1.980817e-04 8.471332e-03 4.888620e-01 2.001140e-01 9.836891e-04 2.895141e-04 3.848514e-06 1.600691e-03 3.797654e-04 1.001072e-07 5.878449e+02 -5.631804e-02 9.820831e+03 9.677142e+03 8.771210e-01 4.439253e+06 3.815254e+07 6.170396e-09 
6.060606e-01 0.000000e+00 2.349256e-01 2.729369e-04 1.174948e-02 5.635312e-01 2.395351e-01 1.196542e-03 3.124392e-04 4.378738e-06 1.510432e-03 3.720575e-04 1.009283e-07 0.000000e+00 0.000000e+00 8.291492e+03 8.291492e+03 1.053410e+00 4.438055e+06 3.433580e+07 3.141017e-09 
6.060606e-01 5.000000e-06 1.762093e-01 1.980871e-04 8.471409e-03 4.889356e-01 2.001339e-01 9.838003e-04 2.895970e-04 3.849392e-06 1.601240e-03 3.798857e-04 1.001366e-07 5.879072e+02 -5.672683e-02 9.821148e+03 9.677460e+03 8.772069e-01 4.439911e+06 3.815437e+07 6.169217e-09 
6.313131e-01 0.000000e+00 2.349227e-01 2.729429e-04 1.174964e-02 5.635813e-01 2.395494e-01 1.196638e-03 3.124949e-04 4.379354e-06 1.510696e-03 3.721202e-04 1.009437e-07 -1.421085e-14 0.000000e+00 8.291612e+03 8.291612e+03 1.053472e+00 4.438425e+06 3.433663e+07 3.140684e-09 
6.313131e-01 5.000000e-06 1.762047e-01 1.980903e-04 8.471460e-03 4.889769e-01 2.001452e-01 9.838635e-04 2.896437e-04 3.849888e-06 1.601546e-03 3.799528e-04 1.001530e-07 5.879423e+02 -5.698789e-02 9.821325e+03 9.677638e+03 8.772553e-01 4.440281e+06 3.815539e+07 6.168554e-09 
6.565657e-01 0.000000e+00 2.349213e-01 2.729463e-04 1.174974e-02 5.636080e-01 2.395572e-01 1.196690e-03 3.125246e-04 4.379684e-06 1.510837e-03 3.721535e-04 1.009520e-07 1.421085e-14 5.551115e-17 8.291676e+03 8.291676e+03 1.053506e+00 4.438623e+06 3.433707e+07 3.140506e-09 
6.565657e-01 5.000000e-06 1.762023e-01 1.980921e-04 8.471491e-03 4.889990e-01 2.001512e-01 9.838977e-04 2.896688e-04 3.850155e-06 1.601709e-03 3.799885e-04 1.001618e-07 5.879612e+02 -5.714466e-02 9.821420e+03 9.677732e+03 8.772812e-01 4.440479e+06 3.815593e+07 6.168200e-09 
6.818182e-01 0.000000e+00 2.349206e-01 2.729480e-04 1.174979e-02 5.636216e-01 2.395611e-01 1.196716e-03 3.125398e-04 4.379853e-06 1.510908e-03 3.721705e-04 1.009561e-07 -1.421085e-14 -5.551115e-17 8.291709e+03 8.291709e+03 1.053523e+00 4.438724e+06 3.433730e+07 3.140415e-09 
6.818182e-01 5.000000e-06 1.762011e-01 1.980931e-04 8.471508e-03 4.890103e-01 2.001543e-01 9.839153e-04 2.896816e-04 3.850292e-06 1.601791e-03 3.800067e-04 1.001662e-07 5.879708e+02 -5.723342e-02 9.821468e+03 9.677780e+03 8.772946e-01 4.440580e+06 3.815621e+07 6.168019e-09 
7.070707e-01 0.000000e+00 2.349203e-01 2.729489e-04 1.174981e-02 5.636283e-01 2.395631e-01 1.196729e-03 3.125472e-04 4.379936e-06 1.510943e-03 3.721787e-04 1.009582e-07 0.000000e+00 -5.551115e-17 8.291724e+03 8.291724e+03 1.053531e+00 4.438773e+06 3.433741e+07 3.140371e-09 
7.070707e-01 5.000000e-06 1.762005e-01 1.980936e-04 8.471517e-03 4.890158e-01 2.001558e-01 9.839240e-04 2.896878e-04 3.850359e-06 1.601831e-03 3.800155e-04 1.001683e-07 5.879756e+02 -5.728090e-02 9.821492e+03 9.677803e+03 8.773011e-01 4.440630e+06 3.815634e+07 6.167931e-09 
7.323232e-01 0.000000e+00 2.349201e-01 2.729493e-04 1.174982e-02 5.636314e-01 2.395640e-01 1.196735e-03 3.125507e-04 4.379975e-06 1.510959e-03 3.721826e-04 1.009591e-07 0.000000e+00 0.000000e+00 8.291732e+03 8.291732e+03 1.053535e+00 4.438796e+06 3.433746e+07 1.570178e-09 
7.323232e-01 5.000000e-06 1.762003e-01 1.980938e-04 8.471522e-03 4.890184e-01 2.001565e-01 9.839282e-04 2.896908e-04 3.850391e-06 1.601849e-03 3.800196e-04 1.001694e-07 5.879778e+02 -5.730501e-02 9.821503e+03 9.677814e+03 8.773042e-01 4.440653e+06 3.815640e+07 3.083951e-09 
2.525253e-02 1.005010e-05 1.388160e-02 3.016762e-05 9.997733e-04 4.281398e-01 1.366245e-01 3.076785e-04 2.560821e-04 3.218875e-06 1.345821e-02 2.443953e-03 6.218316e-07 1.619152e+03 2.371137e-01 1.265069e+04 1.263514e+04 5.961456e-01 4.408653e+06 5.459345e+07 4.540598e-09 
0.000000e+00 1.005010e-05 1.779945e-02 4.590493e-03 2.665705e-04 1.951798e-01 6.166145e-02 1.105346e-04 1.114229e-04 1.538614e-06 8.755374e-03 1.580031e-03 4.015165e-07 6.061858e+03 -5.164696e+03 6.825923e+03 6.795010e+03 2.900570e-01 1.137497e+06 5.797205e+07 2.168205e-09 
5.050505e-02 1.005010e-05 4.922582e-02 6.807155e-05 2.678937e-03 4.840049e-01 1.630208e-01 5.388397e-04 3.049776e-04 3.489981e-06 6.654763e-03 1.257928e-03 3.199003e-07 1.278617e+03 6.449774e-01 1.133400e+04 1.136336e+04 7.077588e-01 4.502128e+06 4.790481e+07 5.121503e-09 
7.575758e-02 1.005010e-05 9.726625e-02 1.134996e-04 4.728139e-03 5.017650e-01 1.818390e-01 7.591790e-04 3.193111e-04 3.709589e-06 3.251536e-03 6.755223e-04 1.710980e-07 1.073907e+03 3.715458e-01 1.048159e+04 1.049613e+04 7.907213e-01 4.484763e+06 4.323357e+07 5.656971e-09 
1.010101e-01 1.005010e-05 1.263030e-01 1.395615e-04 5.882443e-03 5.001098e-01 1.894577e-01 8.601220e-04 3.160113e-04 3.830803e-06 2.432734e-03 5.341752e-04 1.359621e-07 1.033807e+03 3.045735e-01 1.020393e+04 1.020083e+04 8.260395e-01 4.476723e+06 4.133537e+07 5.867419e-09 
1.262626e-01 1.005010e-05 1.357299e-01 1.479928e-04 6.246712e-03 4.980995e-01 1.915089e-01 8.890480e-04 3.134978e-04 3.864532e-06 2.236897e-03 5.002156e-04 1.276325e-07 1.044292e+03 2.869203e-01 1.012991e+04 1.012106e+04 8.356767e-01 4.469782e+06 4.079796e+07 5.932843e-09 
1.515152e-01 1.005010e-05 1.360016e-01 1.480455e-04 6.250977e-03 4.969690e-01 1.912538e-01 8.899925e-04 3.130076e-04 3.861043e-06 2.215822e-03 4.965468e-04 1.266897e-07 1.069992e+03 2.936052e-01 1.012534e+04 1.011366e+04 8.345428e-01 4.460158e+06 4.079200e+07 5.949404e-09 
1.767677e-01 1.005010e-05 1.335215e-01 1.455296e-04 6.146460e-03 4.960355e-01 1.902762e-01 8.826045e-04 3.130945e-04 3.845083e-06 2.240950e-03 5.008130e-04 1.276840e-07 1.096297e+03 3.130644e-01 1.014020e+04 1.012625e+04 8.300666e-01 4.448465e+06 4.093672e+07 5.953958e-09 
2.020202e-01 1.005010e-05 1.311533e-01 1.430738e-04 6.044934e-03 4.948870e-01 1.892580e-01 8.747480e-04 3.127615e-04 3.825164e-06 2.264919e-03 5.046973e-04 1.286010e-07 1.112744e+03 3.322596e-01 1.015358e+04 1.013790e+04 8.254474e-01 4.434888e+06 4.106287e+07 5.962325e-09 
2.272727e-01 1.005010e-05 1.300291e-01 1.417384e-04 5.991377e-03 4.934303e-01 1.885014e-01 8.698182e-04 3.117035e-04 3.805902e-06 2.268072e-03 5.048313e-04 1.286141e-07 1.118917e+03 3.451240e-01 1.015698e+04 1.014014e+04 8.220523e-01 4.420051e+06 4.110573e+07 5.980135e-09 
2.525253e-01 1.005010e-05 1.298340e-01 1.412396e-04 5.973841e-03 4.917668e-01 1.879458e-01 8.672050e-04 3.101504e-04 3.787466e-06 2.255018e-03 5.020767e-04 1.279254e-07 1.119476e+03 3.487725e-01 1.015274e+04 1.013519e+04 8.196002e-01 4.404394e+06 4.108785e+07 6.005062e-09 
2.777778e-01 1.005010e-05 1.299039e-01 1.410780e-04 5.969733e-03 4.905621e-01 1.876024e-01 8.657848e-04 3.088979e-04 3.774042e-06 2.242595e-03 4.995503e-04 1.272989e-07 1.118440e+03 3.615538e-01 1.014785e+04 1.013023e+04 8.181000e-01 4.393207e+06 4.106137e+07 6.024358e-09 
3.030303e-01 1.005010e-05 1.299131e-01 1.410443e-04 5.968879e-03 4.903165e-01 1.875323e-01 8.653861e-04 3.085882e-04 3.770681e-06 2.240401e-03 4.990883e-04 1.271835e-07 1.118102e+03 3.782173e-01 1.014669e+04 1.012934e+04 8.177891e-01 4.390846e+06 4.105589e+07 6.028494e-09 
3.282828e-01 1.005010e-05 1.298489e-01 1.410395e-04 5.968029e-03 4.905897e-01 1.875982e-01 8.655111e-04 3.088483e-04 3.773179e-06 2.244143e-03 4.998197e-04 1.273631e-07 1.118398e+03 3.830688e-01 1.014803e+04 1.013087e+04 8.180681e-01 4.393280e+06 4.106447e+07 6.024027e-09 
3.535354e-01 1.005010e-05 1.297147e-01 1.410090e-04 5.965624e-03 4.910807e-01 1.877091e-01 8.656958e-04 3.093357e-04 3.777683e-06 2.251126e-03 5.011743e-04 1.276969e-07 1.119015e+03 3.871388e-01 1.015064e+04 1.013373e+04 8.185423e-01 4.397643e+06 4.108111e+07 6.015910e-09 
3.787879e-01 1.005010e-05 1.295200e-01 1.409646e-04 5.962102e-03 4.917956e-01 1.878706e-01 8.659971e-04 3.100632e-04 3.784456e-06 2.261232e-03 5.031391e-04 1.281811e-07 1.120025e+03 3.917859e-01 1.015449e+04 1.013785e+04 8.192336e-01 4.404026e+06 4.110548e+07 6.004046e-09 
4.040404e-01 1.005010e-05 1.293126e-01 1.409327e-04 5.958772e-03 4.926381e-01 1.880677e-01 8.664659e-04 3.109428e-04 3.792877e-06 2.272701e-03 5.053846e-04 1.287346e-07 1.121307e+03 3.933280e-01 1.015896e+04 1.014251e+04 8.200775e-01 4.411625e+06 4.113316e+07 5.990068e-09 
4.292929e-01 1.005010e-05 1.291306e-01 1.409157e-04 5.956149e-03 4.934345e-01 1.882583e-01 8.669774e-04 3.117869e-04 3.801095e-06 2.283279e-03 5.074649e-04 1.292475e-07 1.122556e+03 3.916994e-01 1.016314e+04 1.014679e+04 8.208940e-01 4.418854e+06 4.115863e+07 5.976880e-09 
4.545455e-01 1.005010e-05 1.289796e-01 1.409061e-04 5.954101e-03 4.941202e-01 1.884240e-01 8.674403e-04 3.125169e-04 3.808252e-06 2.292306e-03 5.092430e-04 1.296860e-07 1.123638e+03 3.895382e-01 1.016671e+04 1.015043e+04 8.216043e-01 4.425095e+06 4.118025e+07 5.965563e-09 
4.797980e-01 1.005010e-05 1.288591e-01 1.409029e-04 5.952590e-03 4.946900e-01 1.885632e-01 8.678465e-04 3.131267e-04 3.814274e-06 2.299726e-03 5.107070e-04 1.300471e-07 1.124540e+03 3.871185e-01 1.016965e+04 1.015341e+04 8.222012e-01 4.430296e+06 4.119794e+07 5.956184e-09 
5.050505e-01 1.005010e-05 1.287722e-01 1.409032e-04 5.951570e-03 4.951159e-01 1.886682e-01 8.681669e-04 3.135868e-04 3.818849e-06 2.305212e-03 5.117917e-04 1.303148e-07 1.125216e+03 3.841934e-01 1.017185e+04 1.015561e+04 8.226514e-01 4.434196e+06 4.121101e+07 5.949178e-09 
5.303030e-01 1.005010e-05 1.287136e-01 1.409050e-04 5.950925e-03 4.954118e-01 1.887416e-01 8.683988e-04 3.139085e-04 3.822065e-06 2.308990e-03 5.125398e-04 1.304995e-07 1.125686e+03 3.817044e-01 1.017337e+04 1.015712e+04 8.229666e-01 4.436913e+06 4.122000e+07 5.944314e-09 
5.555556e-01 1.005010e-05 1.286761e-01 1.409071e-04 5.950537e-03 4.956055e-01 1.887900e-01 8.685558e-04 3.141203e-04 3.824192e-06 2.311444e-03 5.130265e-04 1.306197e-07 1.125994e+03 3.798141e-01 1.017436e+04 1.015810e+04 8.231742e-01 4.438695e+06 4.122583e+07 5.941131e-09 
5.808081e-01 1.005010e-05 1.286534e-01 1.409088e-04 5.950316e-03 4.957261e-01 1.888202e-01 8.686565e-04 3.142528e-04 3.825527e-06 2.312959e-03 5.133275e-04 1.306940e-07 1.126185e+03 3.784530e-01 1.017498e+04 1.015870e+04 8.233040e-01 4.439806e+06 4.122943e+07 5.939150e-09 
6.060606e-01 1.005010e-05 1.286403e-01 1.409101e-04 5.950196e-03 4.957974e-01 1.888382e-01 8.687178e-04 3.143317e-04 3.826325e-06 2.313848e-03 5.135044e-04 1.307377e-07 1.126299e+03 3.775173e-01 1.017534e+04 1.015906e+04 8.233813e-01 4.440465e+06 4.123155e+07 5.937978e-09 
6.313131e-01 1.005010e-05 1.286330e-01 1.409110e-04 5.950134e-03 4.958375e-01 1.888483e-01 8.687533e-04 3.143763e-04 3.826777e-06 2.314344e-03 5.136032e-04 1.307621e-07 1.126363e+03 3.769131e-01 1.017555e+04 1.015925e+04 8.234249e-01 4.440835e+06 4.123273e+07 5.937319e-09 
6.565657e-01 1.005010e-05 1.286292e-01 1.409116e-04 5.950104e-03 4.958589e-01 1.888538e-01 8.687727e-04 3.144002e-04 3.827021e-06 2.314607e-03 5.136556e-04 1.307750e-07 1.126397e+03 3.765470e-01 1.017566e+04 1.015936e+04 8.234483e-01 4.441034e+06 4.123336e+07 5.936967e-09 
6.818182e-01 1.005010e-05 1.286273e-01 1.409119e-04 5.950089e-03 4.958698e-01 1.888566e-01 8.687829e-04 3.144125e-04 3.827146e-06 2.314740e-03 5.136822e-04 1.307816e-07 1.126414e+03 3.763383e-01 1.017571e+04 1.015941e+04 8.234603e-01 4.441135e+06 4.123368e+07 5.936787e-09 
7.070707e-01 1.005010e-05 1.286264e-01 1.409120e-04 5.950083e-03 4.958751e-01 1.888579e-01 8.687880e-04 3.144185e-04 3.827208e-06 2.314805e-03 5.136951e-04 1.307848e-07 1.126423e+03 3.762260e-01 1.017574e+04 1.015944e+04 8.234662e-01 4.441185e+06 4.123383e+07 5.936698e-09 
7.323232e-01 1.005010e-05 1.286260e-01 1.409121e-04 5.950080e-03 4.958776e-01 1.888586e-01 8.687904e-04 3.144214e-04 3.827237e-06 2.314835e-03 5.137012e-04 1.307863e-07 1.126427e+03 3.761688e-01 1.017575e+04 1.015945e+04 8.234689e-01 4.441208e+06 4.123390e+07 4.422891e-09 
2.525253e-02 1.520090e-05 6.829909e-03 2.046876e-05 6.047805e-04 3.982207e-01 1.261202e-01 2.323294e-04 2.276015e-04 3.153064e-06 1.846192e-02 3.345637e-03 8.467988e-07 2.354643e+03 -4.837839e-01 1.336286e+04 1.332403e+04 5.540676e-01 4.407791e+06 5.935297e+07 4.229779e-09 
0.000000e+00 1.520090e-05 1.636114e-02 4.587683e-03 1.652377e-04 1.796541e-01 5.686353e-02 8.418058e-05 9.679997e-05 1.505479e-06 1.165578e-02 2.116639e-03 5.327988e-07 6.470835e+03 -5.164983e+03 7.184041e+03 7.137058e+03 2.715871e-01 1.138158e+06 6.289222e+07 2.031800e-09 
5.050505e-02 1.520090e-05 2.876584e-02 4.733382e-05 1.751603e-03 4.654459e-01 1.518821e-01 4.194487e-04 2.851557e-04 3.364001e-06 9.680579e-03 1.781984e-03 4.537203e-07 1.862073e+03 -3.273874e-02 1.192016e+04 1.197365e+04 6.600638e-01 4.507646e+06 5.170389e+07 4.793766e-09 
7.575758e-02 1.520090e-05 6.359364e-02 8.251073e-05 3.332100e-03 4.983949e-01 1.712989e-01 6.195187e-04 3.136305e-04 3.515562e-06 4.733645e-03 9.324119e-04 2.352578e-07 1.571280e+03 -1.022814e-01 1.089178e+04 1.096866e+04 7.433050e-01 4.487043e+06 4.648959e+07 5.373963e-09 
1.010101e-01 1.520090e-05 8.761956e-02 1.042243e-04 4.325275e-03 5.030918e-01 1.793524e-01 7.244217e-04 3.189523e-04 3.633773e-06 3.457227e-03 7.140702e-04 1.798767e-07 1.514897e+03 -1.679102e-01 1.054500e+04 1.060061e+04 7.797117e-01 4.478082e+06 4.441775e+07 5.615966e-09 
1.262626e-01 1.520090e-05 9.600665e-02 1.115703e-04 4.658471e-03 5.026796e-01 1.815710e-01 7.573238e-04 3.192603e-04 3.674223e-06 3.147005e-03 6.608604e-04 1.665618e-07 1.530588e+03 -2.159129e-01 1.045255e+04 1.049809e+04 7.899156e-01 4.471069e+06 4.384080e+07 5.691071e-09 
1.515152e-01 1.520090e-05 9.655674e-02 1.118928e-04 4.675339e-03 5.016251e-01 1.814146e-01 7.598732e-04 3.190846e-04 3.674296e-06 3.106823e-03 6.539191e-04 1.647966e-07 1.568151e+03 -2.432263e-01 1.044467e+04 1.048607e+04 7.892272e-01 4.461492e+06 4.384484e+07 5.709296e-09 
1.767677e-01 1.520090e-05 9.467727e-02 1.100090e-04 4.593972e-03 5.003556e-01 1.805076e-01 7.531338e-04 3.187702e-04 3.660441e-06 3.138711e-03 6.592440e-04 1.660938e-07 1.606955e+03 -2.465252e-01 1.046070e+04 1.049951e+04 7.851182e-01 4.449852e+06 4.401375e+07 5.712927e-09 
2.020202e-01 1.520090e-05 9.280425e-02 1.080870e-04 4.511412e-03 4.988868e-01 1.795358e-01 7.456336e-04 3.180237e-04 3.642021e-06 3.172074e-03 6.646662e-04 1.674285e-07 1.631664e+03 -2.350724e-01 1.047605e+04 1.051313e+04 7.807506e-01 4.436302e+06 4.415947e+07 5.719684e-09 
2.272727e-01 1.520090e-05 9.193987e-02 1.070424e-04 4.468433e-03 4.973017e-01 1.788147e-01 7.411521e-04 3.168187e-04 3.624055e-06 3.176537e-03 6.650336e-04 1.675049e-07 1.641212e+03 -2.202366e-01 1.048019e+04 1.051618e+04 7.775351e-01 4.421470e+06 4.421018e+07 5.736326e-09 
2.525253e-01 1.520090e-05 9.186276e-02 1.066875e-04 4.456695e-03 4.956585e-01 1.782978e-01 7.391926e-04 3.153260e-04 3.606948e-06 3.157221e-03 6.612710e-04 1.665481e-07 1.642321e+03 -2.138520e-01 1.047534e+04 1.051069e+04 7.752592e-01 4.405807e+06 4.419097e+07 5.760702e-09 
2.777778e-01 1.520090e-05 9.198713e-02 1.065980e-04 4.455751e-03 4.945025e-01 1.779836e-01 7.382900e-04 3.141500e-04 3.594394e-06 3.138758e-03 6.577694e-04 1.656616e-07 1.640938e+03 -1.919536e-01 1.046962e+04 1.050503e+04 7.738883e-01 4.394609e+06 4.416097e+07 5.779796e-09 
3.030303e-01 1.520090e-05 9.200941e-02 1.065809e-04 4.455624e-03 4.942672e-01 1.779201e-01 7.380006e-04 3.138443e-04 3.591140e-06 3.135456e-03 6.571332e-04 1.654987e-07 1.640469e+03 -1.652564e-01 1.046824e+04 1.050402e+04 7.736071e-01 4.392239e+06 4.415450e+07 5.783913e-09 
3.282828e-01 1.520090e-05 9.194110e-02 1.065681e-04 4.454342e-03 4.945227e-01 1.779798e-01 7.380048e-04 3.140708e-04 3.593409e-06 3.140980e-03 6.581585e-04 1.657554e-07 1.640887e+03 -1.581913e-01 1.046980e+04 1.050578e+04 7.738595e-01 4.394673e+06 4.416402e+07 5.779467e-09 
3.535354e-01 1.520090e-05 9.180175e-02 1.065264e-04 4.451256e-03 4.949788e-01 1.780793e-01 7.379661e-04 3.144950e-04 3.597506e-06 3.151322e-03 6.600638e-04 1.662344e-07 1.641752e+03 -1.528454e-01 1.047284e+04 1.050910e+04 7.742852e-01 4.399038e+06 4.418253e+07 5.771364e-09 
3.787879e-01 1.520090e-05 9.159815e-02 1.064638e-04 4.446668e-03 4.956423e-01 1.782236e-01 7.379344e-04 3.151333e-04 3.603695e-06 3.166351e-03 6.628338e-04 1.669315e-07 1.643183e+03 -1.471128e-01 1.047737e+04 1.051390e+04 7.749031e-01 4.405426e+06 4.420989e+07 5.759508e-09 
4.040404e-01 1.520090e-05 9.137613e-02 1.064056e-04 4.441915e-03 4.964263e-01 1.783998e-01 7.380111e-04 3.159176e-04 3.611463e-06 3.183437e-03 6.659965e-04 1.677278e-07 1.645016e+03 -1.464351e-01 1.048263e+04 1.051932e+04 7.756577e-01 4.413030e+06 4.424126e+07 5.745544e-09 
4.292929e-01 1.520090e-05 9.117821e-02 1.063611e-04 4.437862e-03 4.971690e-01 1.785705e-01 7.381548e-04 3.166778e-04 3.619093e-06 3.199201e-03 6.689225e-04 1.684649e-07 1.646810e+03 -1.505422e-01 1.048756e+04 1.052429e+04 7.763886e-01 4.420266e+06 4.427025e+07 5.732376e-09 