VARIABLES = "X"
 "Y"
 "rho_N2"
 "rho_O2"
 "rho_NO"
 "rho_N"
 "rho_O"
 "rho_NOp"
 "rho_N2p"
 "rho_O2p"
 "rho_Np"
 "rho_Op"
 "rho_e"
 "U"
 "V"
 "T"
 "Tv"
 "rho"
 "P"
 "H"
 "tau"
 "gamma"
ZONE
DT=(DOUBLE,DOUBLE,DOUBLE,DOUBLE,DOUBLE,DOUBLE,DOUBLE,DOUBLE,DOUBLE,DOUBLE,DOUBLE,DOUBLE,DOUBLE,DOUBLE,DOUBLE,DOUBLE,DOUBLE,DOUBLE,DOUBLE,DOUBLE,DOUBLE,DOUBLE)
                   0.08                   0.045    0.000162321923099575    4.80865768217704E-05    5.65216971692811E-07    6.73634379528789E-08    9.98912425317633E-07                       0                       0                       0                       0                       0                       0         6119.9489685157        1119.63664564371        3458.80060963589          1319.551198629    0.000212039980166512        212.151830693974        23047310.9601193     0.00260585696335019        1.26761540634614 
                   0.08      0.0448484848484848    0.000159547008425375    4.72120776975301E-05    5.80012977528733E-07     6.8900787262804E-08     1.0254893810142E-06                       0                       0                       0                       0                       0                       0        6107.81747205458        1113.84366321979        3499.65539114323        1351.34624729766    0.000208433474581585        210.906472722478        23018981.8237536     0.00253298732502496        1.26596513370992 
                   0.08      0.0446969696969697    0.000156772093751175    4.63375785732899E-05    5.94808983364654E-07    7.04381365727291E-08    1.05206633671076E-06                       0                       0                       0                       0                       0                       0        6095.68597559345        1108.05068079588        3540.51017265057        1383.14129596632    0.000204826968996658        209.661114750983        22990652.6873879     0.00246011768669973         1.2643148610737 
                   0.08      0.0445454545454545    0.000153997179076976    4.54630794490496E-05    6.09604989200575E-07    7.19754858826543E-08    1.07864329240733E-06                       0                       0                       0                       0                       0                       0        6083.55447913232        1102.25769837197        3581.36495415791        1414.93634463498    0.000201220463411731        208.415756779487        22962323.5510222     0.00238724804837449        1.26266458843747 
                   0.08      0.0443939393939394    0.000151222264402776    4.45885803248094E-05    6.24400995036495E-07    7.35128351925793E-08    1.10522024810389E-06                       0                       0                       0                       0                       0                       0         6071.4229826712        1096.46471594805        3622.21973566525        1446.73139330364    0.000197613957826804        207.170398807992        22933994.4146565     0.00231437841004926        1.26101431580125 
                   0.08      0.0442424242424242    0.000148447349728576    4.37140812005692E-05    6.39197000872416E-07    7.50501845025045E-08    1.13179720380046E-06                       0                       0                       0                       0                       0                       0        6059.29148621007        1090.67173352414        3663.07451717259         1478.5264419723    0.000194007452241877        205.925040836496        22905665.2782908     0.00224150877172403        1.25936404316502 
                   0.08      0.0440909090909091    0.000145965319062808    4.29287674999665E-05    6.53876524857336E-07    7.65051930441884E-08    1.15814811196223E-06                       0                       0                       0                       0                       0                       0        6045.66389650149        1084.99872541748         3704.0396633181        1511.17808557165    0.000190782597294154        204.826211045746        22870048.3822784     0.00217817588591037        1.25795069225568 
                   0.08      0.0439393939393939     0.00014376016269638    4.22280597441539E-05    6.68320247356712E-07    7.78617161658523E-08    1.18403221280989E-06                       0                       0                       0                       0                       0                       0        6030.76962531745        1079.55569537368        3745.05469700316          1544.333400308    0.000187918426414146         203.89250534523        22828251.5100808     0.00212076951515281        1.25674197365374 
                   0.08      0.0437878787878788    0.000141555006329951    4.15273519883413E-05    6.82763969856087E-07    7.92182392875162E-08    1.20991631365756E-06                       0                       0                       0                       0                       0                       0        6015.87535413341        1074.11266532989        3786.06973068821        1577.48871504434    0.000185054255534137        202.958799644714        22786454.6378832     0.00206336314439525        1.25553325505181 
                   0.08      0.0436363636363636    0.000139349849963523    4.08266442325287E-05    6.97207692355462E-07    8.05747624091801E-08    1.23580041450522E-06                       0                       0                       0                       0                       0                       0        6000.98108294937         1068.6696352861        3827.08476437326        1610.64402978068    0.000182190084654129        202.025093944198        22744657.7656856     0.00200595677363769        1.25432453644988 
                   0.08      0.0434848484848485    0.000137144693597094    4.01259364767161E-05    7.11651414854837E-07     8.1931285530844E-08    1.26168451535288E-06                       0                       0                       0                       0                       0                       0        5986.08681176533        1063.22660524231        3868.09979805831        1643.79934451702     0.00017932591377412        201.091388243682         22702860.893488     0.00194855040288014        1.25311581784795 
                   0.08      0.0433333333333333    0.000134939537230666    3.94252287209035E-05    7.26095137354212E-07    8.32878086525078E-08    1.28756861620055E-06                       0                       0                       0                       0                       0                       0        5971.19254058129        1057.78357519852        3909.11483174336        1676.95465925336    0.000176461742894112        200.157682543166        22661064.0212904     0.00189114403212258        1.25190709924602 
                   0.08      0.0431818181818182    0.000132868722575885     3.8765458917711E-05    7.40474805397673E-07    8.45932608055831E-08    1.31332103198744E-06                       0                       0                       0                       0                       0                       0        5955.26051105452        1052.28463977313        3949.98775113705        1710.36424969811    0.000173772597465593        199.280795681382        22613924.9448589     0.00183935369157189         1.2508112501171 
                   0.08       0.043030303030303     0.00013108438729009    3.81938211467229E-05    7.54363470696206E-07    8.57397109085533E-08    1.33808493258665E-06                       0                       0                       0                       0                       0                       0        5937.51589056199        1046.95667876878        3990.56498147864        1743.58404425148    0.000171456411538516         198.58159705782        22557358.4023709      0.0017935736743478        1.24992090689616 
                   0.08      0.0428787878787879    0.000129300052004296    3.76221833757348E-05    7.68252135994739E-07    8.68861610115235E-08    1.36284883318586E-06                       0                       0                       0                       0                       0                       0        5919.77127006947        1041.62871776443        4031.14221182023        1776.80383880486    0.000169140225611439        197.882398434258        22500791.8598828      0.0017477936571237        1.24903056367523 
                   0.08      0.0427272727272727    0.000127515716718502    3.70505456047468E-05    7.82140801293273E-07    8.80326111144937E-08    1.38761273378507E-06                       0                       0                       0                       0                       0                       0        5902.02664957694        1036.30075676008        4071.71944216181        1810.02363335823    0.000166824039684362        197.183199810697        22444225.3173947     0.00170201363989961        1.24814022045429 
                   0.08      0.0425757575757576    0.000125731381432708    3.64789078337587E-05    7.96029466591806E-07    8.91790612174639E-08    1.41237663438427E-06                       0                       0                       0                       0                       0                       0        5884.28202908441        1030.97279575573         4112.2966725034         1843.2434279116    0.000164507853757285        196.484001187135        22387658.7749067     0.00165623362267552        1.24724987723336 
                   0.08      0.0424242424242424    0.000123941122504554    3.59054007072482E-05     8.0994831866876E-07    9.03317304215949E-08    1.43720088869059E-06                       0                       0                       0                       0                       0                       0        5866.56526572805        1025.63060223847        4152.88128221636        1876.50859300341    0.000162183972813369        195.778964579921        22331247.7464748     0.00161054673730742        1.24635656573518 
                   0.08      0.0422727272727273    0.000122316076413838    3.53826317350677E-05    8.23628044423222E-07    9.13812186451836E-08    1.46152514786275E-06                       0                       0                       0                       0                       0                       0        5847.18974086612         1020.1522165933        4192.95841992548        1909.41291222763    0.000160075204007064        195.149492949192        22266024.1219141     0.00157087140690784        1.24559165469819 
                   0.08      0.0421212121212121    0.000120841119348867    3.49065807351261E-05    8.36821521239698E-07    9.23047317259941E-08    1.48486645346311E-06                       0                       0                       0                       0                       0                       0        5826.54176674545        1014.71709479231        4232.65707915886        1941.54113153757    0.000158161646231388        194.616742936155         22193932.672261     0.00153390523323428         1.2449286982636 
                   0.08       0.041969696969697    0.000119366162283896    3.44305297351845E-05    8.50014998056173E-07    9.32282448068045E-08    1.50820775906347E-06                       0                       0                       0                       0                       0                       0        5805.89379262479        1009.28197299131        4272.35573839223        1973.66935084752    0.000156248088455711        194.083992923118         22121841.222608     0.00149693905956073        1.24426574182902 
                   0.08      0.0418181818181818    0.000117891205218926    3.39544787352428E-05    8.63208474872649E-07     9.4151757887615E-08    1.53154906466383E-06                       0                       0                       0                       0                       0                       0        5785.24581850412        1003.84685119031         4312.0543976256        2005.79757015746    0.000154334530680035        193.551242910081        22049749.7729549     0.00145997288588717        1.24360278539443 
                   0.08      0.0416666666666667    0.000116416248153955    3.34784277353013E-05    8.76401951689124E-07    9.50752709684254E-08    1.55489037026419E-06                       0                       0                       0                       0                       0                       0        5764.59784438345        998.411729389311        4351.75305685898        2037.92578946741    0.000152420972904358        193.018492897044        21977658.3233019     0.00142300671221362        1.24293982895985 
                   0.08      0.0415151515151515    0.000114955809177534    3.30065929523624E-05    8.89680071394401E-07     9.5997907462126E-08    1.57839152924499E-06                       0                       0                       0                       0                       0                       0        5743.61260204329        992.870410902514        4391.28403950061        2070.09055731831    0.000150526393095019         192.47986098518        21903812.1779175     0.00138764179696159        1.24229311204344 
                   0.08      0.0413636363636364    0.000113699791054566    3.25986242381159E-05    9.02198812941167E-07    9.67156155374111E-08    1.60034531965863E-06                       0                       0                       0                       0                       0                       0        5720.12757048091        987.142353559525        4429.78335583285         2100.4356366749    0.000148897609350018        192.048532722491        21816461.8905272     0.00135761832127003        1.24179053644068 
                   0.08      0.0412121212121212    0.000112453699659045     3.2193951241209E-05    9.14596019343649E-07    9.74145596700911E-08    1.62205923874578E-06                       0                       0                       0                       0                       0                       0        5696.55175035884        981.435516389753        4468.25890470408        2130.56225174565    0.000147281673483248        191.626543582213        21728591.6797142     0.00132744447893884        1.24129312674431 
                   0.08      0.0410606060606061    0.000111207608263524    3.17892782443022E-05    9.26993225746131E-07    9.81135038027711E-08    1.64377315783292E-06                       0                       0                       0                       0                       0                       0        5672.97593023678        975.728679219982        4506.73445357531        2160.68886681641    0.000145665737616478        191.204554441935        21640721.4689013     0.00129727063660766        1.24079571704793 
                   0.08      0.0409090909090909    0.000109961516868003    3.13846052473953E-05    9.39390432148613E-07    9.88124479354511E-08    1.66548707692007E-06                       0                       0                       0                       0                       0                       0        5649.40011011471         970.02184205021        4545.21000244654        2190.81548188716    0.000144049801749708        190.782565301657        21552851.2580883     0.00126709679427648        1.24029830735156 
                   0.08      0.0407575757575758    0.000108704985765413    3.09763204488541E-05    9.51978663865537E-07    9.95367085839838E-08    1.68757555419737E-06                       0                       0                       0                       0                       0                       0        5625.86290888454        964.259359398751        4583.66330621684         2221.2332092471    0.000142420394750395        190.346786687449        21465252.6327107     0.00123743435050329          1.239796902638 
                   0.08      0.0406060606060606    0.000107623226683775    3.06230202820244E-05    9.63744778993019E-07    1.00047319628941E-07    1.70799177186814E-06                       0                       0                       0                       0                       0                       0        5599.48700107872        958.155280173043        4620.68058021007        2249.04413685866      0.0001410180279753        189.990104577229        21362491.7790418     0.00121269563666929        1.23941727998686 
                   0.08      0.0404545454545455    0.000106553120221038    3.02737066484468E-05    9.75316099480779E-07    1.00531770258667E-07    1.72802797812128E-06                       0                       0                       0                       0                       0                       0        5572.97357392276        952.074640616905        4657.66244261086        2276.49199826868    0.000139630694849812         189.64394671931        21258962.9919518     0.00118778246871058         1.2390437497006 
                   0.08      0.0403030303030303    0.000105483013758301    2.99243930148692E-05     9.8688741996854E-07    1.01016220888393E-07    1.74806418437443E-06                       0                       0                       0                       0                       0                       0         5546.4601467668        945.994001060766        4694.64430501165        2303.93985967871    0.000138243361724324         189.29778886139        21155434.2048618     0.00116286930075188        1.23867021941433 
                   0.08      0.0401515151515151    0.000104412907295564    2.95750793812916E-05    9.98458740456301E-07    1.01500671518119E-07    1.76810039062758E-06                       0                       0                       0                       0                       0                       0        5519.94671961084        939.913361504628        4731.62616741245        2331.38772108874    0.000136856028598837         188.95163100347        21051905.4177719     0.00113795613279317        1.23829668912807 
                   0.08                    0.04     0.00010335510946605    2.92291672050183E-05    1.01018008481841E-06    1.01984357492223E-07    1.78841190470285E-06                       0                       0                       0                       0                       0                       0        5493.03074791468        933.706936067771         4768.2905855198        2358.76073140208     0.00013548483605968        188.601209413513        20946355.5829233     0.00111419228147246        1.23793404391663 
                   0.08      0.0398484848484848    0.000102419509196467    2.89221449221312E-05    1.02113835098821E-06    1.02291586558537E-07    1.80717490812294E-06                       0                       0                       0                       0                       0                       0        5463.70333949543        927.190193043258        4803.53983669594        2383.39497376664    0.000134272239512726        188.304021743557        20828207.6842174      0.0010935317486549         1.2376514379593 
                   0.08      0.0396969696969697    0.000101491520584252     2.8617793151399E-05    1.03193857978058E-06     1.0258049815176E-07    1.82563339019714E-06                       0                       0                       0                       0                       0                       0        5434.26952364283        920.688837939019        4838.75784312986        2407.72858535169    0.000133069445316416        188.013438425799        20709491.9157138     0.00107276224071787         1.2373725554334 
                   0.08      0.0395454545454545    0.000100563531972037    2.83134413806669E-05    1.04273880857294E-06    1.02869409744982E-07    1.84409187227134E-06                       0                       0                       0                       0                       0                       0        5404.83570779024         914.18748283478        4873.97584956378        2432.06219693675    0.000131866651120105        187.722855108042        20590776.1472102     0.00105199273278084         1.2370936729075 
                   0.08      0.0393939393939394    9.96286738297513E-05    2.80066794694534E-05    1.05368166629146E-06    1.03174852880042E-07    1.86282518523212E-06                       0                       0                       0                       0                       0                       0        5375.49792477619          907.6722401137        4909.22205441572        2456.66712816746    0.000130655010290368        187.426311354359        20472572.8818925     0.00103132157502223        1.23681142998019 
                   0.08      0.0392424242424242    9.87653134805399E-05    2.77222475869956E-05    1.06437385560999E-06    1.03384596023666E-07    1.88100704652585E-06                       0                       0                       0                       0                       0                       0        5344.37264527912        900.851050902906        4943.14874457142        2479.37665019619    0.000129536304094967         187.15145787233        20345363.6563476     0.00101298185483191        1.23657553135634 
                   0.08      0.0390909090909091    9.79559690878236E-05    2.74554726243906E-05    1.07452245974297E-06     1.0350325555605E-07    1.89811404422312E-06                       0                       0                       0                       0                       0                       0         5312.0756499481        893.914828175014        4976.31355963276        2500.32734667915    0.000128487559907074        186.902636429327        20212231.8621743    0.000995575454297644        1.23637135688454 
                   0.08      0.0389393939393939    9.71473790620501E-05    2.71889677711052E-05    1.08465285848102E-06    1.03620124348547E-07    1.91518637134853E-06                       0                       0                       0                       0                       0                       0        5279.76697831937        886.980292132865        5009.47393916692        2521.24283746457    0.000127439785275743        186.654440314495        20079041.3357317     0.00097815917551175        1.23616752657242 
                   0.08      0.0387878787878788    9.63365679216746E-05    2.69216676234876E-05    1.09483686013592E-06    1.03742265692487E-07    1.93236078050992E-06                       0                       0                       0                       0                       0                       0         5247.4926857095        880.040789910304        5042.64737841198        2542.26198587925    0.000126389155937884        186.404403019394        19946023.7372018    0.000960771981681319        1.23596268293635 
                   0.08      0.0386363636363636    9.55543741461476E-05    2.66629275532793E-05    1.10509403368152E-06    1.03832953586085E-07    1.94962781959019E-06                       0                       0                       0                       0                       0                       0        5214.31650638345        872.910964908018        5074.98789606723         2562.4432453817    0.000125375840669146        186.157948853578         19808635.770873    0.000944594473832921        1.23577649278821 
                   0.08      0.0384848484848485    9.48450683452505E-05    2.64276178277687E-05    1.11480005803937E-06    1.03810612908518E-07    1.96577406784776E-06                       0                       0                       0                       0                       0                       0        5179.26885713434        865.538878771653        5105.81163914578        2579.98001574627    0.000124457056369573        185.939223647541        19662148.8968221    0.000930021691490274        1.23563235481763 
                   0.08      0.0383333333333333    9.41401205034957E-05      2.619389231373E-05    1.12438996245108E-06    1.03778711197041E-07    1.98170137896267E-06                       0                       0                       0                       0                       0                       0        5144.15040453414        858.178443563241        5136.59825520611        2597.28934919245    0.000123543869850393        185.723921901961        19515332.9010827    0.000915399481816423        1.23549009477341 
                   0.08      0.0381818181818182    9.34333895422752E-05    2.59595185975808E-05    1.13402737895035E-06    1.03750721515283E-07    1.99771827124805E-06                       0                       0                       0                       0                       0                       0         5109.0609221077        850.813241215958        5167.40006230122        2614.69174161031    0.000122628392921676        185.507219400022        19368651.5700499     0.00090079749602112        1.23534706634955 
                   0.08       0.038030303030303    9.27493417865016E-05    2.57317696824911E-05    1.14379834925257E-06    1.03698607072151E-07    2.01393929274983E-06                       0                       0                       0                       0                       0                       0         5073.1688562038        843.274663468372         5197.3453417026        2631.34618171884    0.000121742535238878        185.291955888383        19218213.4086086    0.000887148664651304        1.23521784848031 
                   0.08      0.0378787878787879    9.21326118189147E-05    2.55255493908805E-05    1.15311483819156E-06    1.03547633669245E-07    2.02921914974345E-06                       0                       0                       0                       0                       0                       0        5035.39010403879        835.492115775642        5225.48185449169        2645.26494539271    0.000120944027539285          185.0993335763        19059003.5533692    0.000874964334997265        1.23512489576546 
                   0.08      0.0377272727272727    9.15202955049437E-05    2.53209488973669E-05    1.16230642039155E-06    1.03388304551313E-07     2.0442655276356E-06                       0                       0                       0                       0                       0                       0        4997.54031356552          827.7241992425        5253.56563150732        2658.93981971326    0.000120151187445899        184.909986459251        18899495.2001655    0.000862739531111727        1.23503375849114 
                   0.08      0.0375757575757576    9.09039877423478E-05    2.51148835537654E-05    1.17161096089661E-06    1.03236531850388E-07     2.0595230502889E-06                       0                       0                       0                       0                       0                       0        4959.75476595826        819.943051149543        5281.69709965343        2672.83525321418    0.000119353221902949        184.717677448531        18740256.7909567    0.000850551329739599        1.23494097943923 
                   0.08      0.0374242424242424    9.03288068246254E-05    2.49212583657961E-05    1.18096483723626E-06    1.03034875033168E-07    2.07479210488963E-06                       0                       0                       0                       0                       0                       0        4920.58624915565        811.921370546639        5308.22822236392        2685.08502450831    0.000118608845668203        184.532392551108        18574807.7843634    0.000839594004396333        1.23487016639724 
                   0.08      0.0372727272727273    8.97994534190284E-05    2.47423791396129E-05    1.18996859437186E-06    1.02771742862247E-07    2.08934762705005E-06                       0                       0                       0                       0                       0                       0        4880.11987219123        803.761408212593        5333.30720485632        2695.29097549662    0.000117923925769659        184.362328627188        18403661.7499527    0.000829501155708033        1.23482178981584 
                   0.08      0.0371212121212121    8.92721734418467E-05     2.4564264755296E-05    1.19891165067004E-06    1.02505548775769E-07     2.1037908454834E-06                       0                       0                       0                       0                       0                       0        4839.62196564305        795.609978013583        5358.35293739857        2705.38111374048    0.000117241667532177        184.193723632894        18232401.8866956    0.000819394477799019        1.23477416427966 
                   0.08       0.036969696969697     8.8736854261691E-05     2.4383184886875E-05     1.2080900593677E-06    1.02251226505298E-07    2.11866949368613E-06                       0                       0                       0                       0                       0                       0         4799.2463072138        787.425466583097        5383.52758835251         2715.9202870958    0.000116549089365937        184.019462001842        18061583.3664783    0.000809341419253699         1.2347236267524 
                   0.08      0.0368181818181818    8.82813723697892E-05    2.42267223813186E-05    1.21715352152072E-06     1.0190526248378E-07     2.1331886171539E-06                       0                       0                       0                       0                       0                       0        4756.31302988914        778.884139781974        5405.39148448704         2722.9630987377    0.000115960365064431        183.862665316859        17879888.6585701    0.000801167126548313        1.23471135671199 
                   0.08      0.0366666666666667    8.78340458993601E-05    2.40732141505505E-05    1.22600083335379E-06    1.01550892327068E-07    2.14730980772482E-06                       0                       0                       0                       0                       0                       0        4713.25112116864          770.3748407481        5427.06833113199        2729.57272935024    0.000115382125329598        183.710882764481        17697786.2218616    0.000792986584383437        1.23470206501058 