VARIABLES = "X"
 "Y"
 "rho_N2"
 "rho_O2"
 "rho_NO"
 "rho_N"
 "rho_O"
 "rho_NOp"
 "rho_N2p"
 "rho_O2p"
 "rho_Np"
 "rho_Op"
 "rho_e"
 "U"
 "V"
 "T"
 "Tv"
 "rho"
 "P"
 "H"
 "tau"
ZONE
DT=(DOUBLE,DOUBLE,DOUBLE,DOUBLE,DOUBLE,DOUBLE,DOUBLE,DOUBLE,DOUBLE,DOUBLE,DOUBLE,DOUBLE,DOUBLE,DOUBLE,DOUBLE,DOUBLE,DOUBLE,DOUBLE,DOUBLE,DOUBLE,DOUBLE)
                      2                       0      0.0423986872013945      0.0129918219173173    5.16214014880117E-10    1.53329689802586E-15    4.23637240719514E-08                       0                       0                       0                       0                       0                       0                       0    4.33671656420806E-20        1517.05442469936        1517.05442469936      0.0553905493518629        24219.5288907826        1663220.77738072    0.000169372132041893 
                      2     0.00035035035035035      0.0288203210585588     0.00883113415247617    3.46779446641006E-10    1.00234994966914E-13    2.86218445027574E-08                       0                       0                       0                       0                       0                       0        1028.91553900213      -0.423466186696427        2231.92301311034        1897.41019870546      0.0376514860220289         24220.215434397        2998943.44228116    8.48541676097997E-05 
                      2    0.000700700700700701      0.0280345950528779      0.0085903714599259    3.01920778616266E-10     1.3147334956752E-13    2.53858949247975E-08                       0                       0                       0                       0                       0                       0        1734.31328529665       0.238620106421943        2294.41248939273        1947.61692531303      0.0366249898027727        24220.2002747332        4049743.31362525    7.71378365440062E-05 
                      2     0.00105105105105105      0.0287653015383351     0.00881427921371436    2.58125567344113E-10    8.01175377515764E-14    2.19779763961583E-08                       0                       0                       0                       0                       0                       0        2179.40088610383       0.880589555057232        2236.30327521798        1921.27209889446       0.037579606223641        24220.9825999918        4856296.53909592    8.42778020359773E-05 
                      2      0.0014014014014014      0.0305580020683418     0.00936360233435499    2.19235923341386E-10    2.87969850941836E-14     1.8608123931002E-08                       0                       0                       0                       0                       0                       0        2467.28989483058        1.30588662698597        2105.75112881816        1838.20973141655      0.0399216223428849        24225.0854978315        5373976.61961319      0.0001039451370035 
                      2     0.00175175175175175        0.03322356589549      0.0101803926545634    1.87703101551229E-10    7.67090094104259E-15    1.58962781017284E-08                       0                       0                       0                       0                       0                       0        2660.99339767973          1.666143969411        1938.05612691973        1707.98207582267      0.0434039762286998         24232.497266169        5672225.22073234    0.000140825164869849 
                      2      0.0021021021021021      0.0365939054690955      0.0112131390146818    1.62131776337566E-10    1.61273313803347E-15    1.37166939871676E-08                       0                       0                       0                       0                       0                       0        2797.76144218629        1.98402013314597        1760.74871626566         1563.1315668578      0.0478070620856078        24242.0469120442        5835035.06284598    0.000200359650076583 
                      2     0.00245245245245245      0.0405685600036734      0.0124310646853484    1.41137325936049E-10    2.97621973308756E-16    1.19357276845055E-08                       0                       0                       0                       0                       0                       0        2897.82534675934        2.26875494396195        1588.69332604653        1437.73063542736       0.052999637703273         24252.623015694        5920462.66515393     0.00029926415058162 
                      2      0.0028028028028028      0.0449068889858075       0.013760425670315    1.23793854368754E-10    5.16158581697505E-17    1.04689010055041E-08                       0                       0                       0                       0                       0                       0        2972.70935405657        2.53335900588895        1435.80914595489        1335.28813106711      0.0586673236902594        24257.4748782606        5966141.01085499    0.000438766779830439 
                      2     0.00315315315315315      0.0491073376816792      0.0150475309873166    1.09306336869804E-10    1.04926878395116E-17    9.24652349558903E-09                       0                       0                       0                       0                       0                       0        3030.54991661056         2.7650916847362        1313.27193910085        1250.19185552937       0.064154874448508        24253.9843989961        6000719.93839417    0.000631993031703773 
                      2      0.0035035035035035      0.0529262665910026      0.0162177338740221     9.6992656925955E-11    2.16804771605517E-18    8.20936943833479E-09                       0                       0                       0                       0                       0                       0        3076.89773604566        2.95184840208034        1218.14530909484        1177.76112319395      0.0691440053561456        24249.2620926919        6033819.93426949    0.000859844923171548 
                      2     0.00385385385385385      0.0563591189482679      0.0172696315604222     8.6462548455554E-11    4.61172144066428E-19    7.32365335767796E-09                       0                       0                       0                       0                       0                       0        3114.67493092862        3.09943134493431        1143.51802083251        1115.32529633003      0.0736287572141494        24245.2555483419        6065321.54281639     0.00111540289646361 
                      2      0.0042042042042042      0.0594531730771562      0.0182177183133655    7.73675769921374E-11    9.79689271323224E-20     6.5594281715909E-09                       0                       0                       0                       0                       0                       0        3146.06424871902        3.21861667762689         1083.5064656106        1060.70441739418      0.0776708971645792        24241.8942437859        6094622.12054267     0.00139225873109912 
                      2     0.00455455455455455      0.0622603971505375      0.0190779129003556    6.94153013656204E-11    1.99213072089297E-20    5.89174689505413E-09                       0                       0                       0                       0                       0                       0        3172.66797551994        3.31760728192052        1034.04181700744        1012.16653103587      0.0813383161627873        24239.0525789283         6121669.6669632     0.00170344340436671 
                      2      0.0049049049049049      0.0647300862318855      0.0198346774640815    6.27060135881268E-11    7.15161309695913E-21    5.32875951419632E-09                       0                       0                       0                       0                       0                       0        3194.37862159472        3.39706789682829        994.892822096605         970.16636443202      0.0845647736129135        24236.7621897824        6145709.15606003     0.00204286648124976 
                      2     0.00525525525525525      0.0669681477277232      0.0205204706220406    5.67797308347935E-11    1.88351839309154E-21    4.83147192196339E-09                       0                       0                       0                       0                       0                       0        3213.17005838161        3.46546826256663         961.62843686133        932.309522875245      0.0874886239697466        24234.8061147556        6167539.01380502     0.00235973348368485 
                      2     0.00560560560560561      0.0690455556911375      0.0211570374365153    5.13934702936306E-11    3.78339427667368E-22    4.37952996610275E-09                       0                       0                       0                       0                       0                       0        3229.99989362135        3.52659695873049        932.265660969928        897.274591372151      0.0902025922777713        24233.0759314388        6187809.50026626     0.00268923839417459 
                      2     0.00595595595595596      0.0708710760713004       0.021716416724327    4.68188890421415E-11    1.57311534315179E-22    3.99564315175938E-09                       0                       0                       0                       0                       0                       0        3243.98702216483        3.57753351801023        908.393516849343        866.488076136826      0.0925874937775643        24231.6861813031        6205572.10712205     0.00305634675180106 
                      2     0.00630630630630631      0.0725505762109721      0.0222310507045363    4.26759556184155E-11    3.67170941219468E-23    3.64779657232444E-09                       0                       0                       0                       0                       0                       0        3256.51268531236         3.6233313408346        887.236706816327         838.05713058595      0.0947816295943612        24230.4658152039         6221871.0870372     0.00336899276730238 
                      2     0.00665665665665666      0.0740944177215942      0.0227041131169571    3.89502482007345E-11    1.28938749145089E-23    3.33490632938115E-09                       0                       0                       0                       0                       0                       0        3267.65450105244        3.66438531814403        868.647048760547        811.813926704859      0.0967985374893209        24229.4058644242        6236789.97616919     0.00374184342874719 
                      2     0.00700700700700701      0.0754670720588138      0.0231247230661282    3.57043966239719E-11    3.48965327657349E-24    3.06203840904408E-09                       0                       0                       0                       0                       0                       0        3277.23842415286        3.70009119513585        852.848929455454        788.257729446269      0.0985918097937913        24228.5264825998        6249986.13273792     0.00404378138849876 
                      2     0.00735735735735736      0.0767582286339085      0.0235203606118095    3.26976328579808E-11    1.25934873766055E-24    2.80918459675547E-09                       0                       0                       0                       0                       0                       0        3286.06456405902        3.73328487825871        838.404817613823        765.976824570211       0.100278615693825        24227.7344543974        6262346.64435536     0.00440348391175103 
                      2     0.00770770770770771      0.0779055373150463      0.0238719214819201    3.00734944439669E-11    3.26197602596762E-25    2.58822144899533E-09                       0                       0                       0                       0                       0                       0        3293.69094982751        3.76240424611634         826.04338237857        745.926381169776       0.101777481596906        24227.0803489181        6273267.07184808     0.00468401139196365 
                      2     0.00805805805805806      0.0789727336887158      0.0241989351504864    2.76724519251335E-11    1.46487668320136E-25    2.38591242213944E-09                       0                       0                       0                       0                       0                       0        3300.63461471953        3.78930051969421          814.8616673005        727.111122696969       0.103171680032153        24226.5057127801         6283368.7057094     0.00502761061968478 
                      2     0.00840840840840841       0.079963008516478      0.0245023771430261    2.54639346570138E-11    2.99679148278272E-26    2.19963858518261E-09                       0                       0                       0                       0                       0                       0        3306.98829096768        3.81417084844453        804.677237591177         709.49293813249       0.104465396118972        24225.9971116497        6292712.22243681     0.00528912618952457 
                      2     0.00875875875875876       0.080834890237521      0.0247695403476512    2.35654461413595E-11    1.70927013499616E-26    2.03925449138774E-09                       0                       0                       0                       0                       0                       0        3312.41418617938        3.83600174489216        796.052026367982        693.703982489293       0.105604449132038        24225.5940255894        6300863.51442373      0.0055969999971873 
                      2     0.00910910910910911      0.0817076107931296      0.0250369605157547     2.1663007488372E-11      3.996021788896E-27    1.87853355757285E-09                       0                       0                       0                       0                       0                       0        3317.84890673379        3.85784111880857        787.413500911841        677.904083421126        0.10674460002432         24225.189655843        6309026.76831225     0.00587914677504109 
                      2     0.00945945945945946      0.0824254430925419      0.0252569184944216    2.01416680581811E-11    2.21032181054892E-27    1.74962847242638E-09                       0                       0                       0                       0                       0                       0        3322.16020531674        3.87590441814542        780.622126440545        664.538336965615       0.107682379571139        24224.9039702631        6315661.48528747     0.00611853948179382 
                      2     0.00980980980980981      0.0831285369124909      0.0254723603103578     1.8659361063066E-11    1.34383863176234E-27    1.62398883564865E-09                       0                       0                       0                       0                       0                       0        3326.36113615733         3.8936328844416        774.009616836969        651.400542472885       0.108600902990307        24224.6306869151        6322144.49505747     0.00640010377303551 
                      2      0.0101601601601602      0.0838079612533367      0.0256805493395622    1.72299434178462E-11    1.12363848664405E-27    1.50276563244813E-09                       0                       0                       0                       0                       0                       0        3330.40474237864        3.91078611974017        767.652763151623        638.648632309592       0.109488504988303        24224.3735302778        6328403.72823136     0.00662573758997499 
                      2      0.0105105105105105      0.0843687323225179      0.0258523814876319    1.60822215449081E-11    2.22020565669177E-27    1.40509536883346E-09                       0                       0                       0                       0                       0                       0        3333.63671208694        3.92519432787594        762.601182819343        627.806564735728       0.110221099352064        24224.2040852592        6333503.51983778     0.00684459415479804 
                      2      0.0108608608608609      0.0849285466441153      0.0260239206515325    1.49381098846598E-11    2.34662639545289E-27    1.30772730061456E-09                       0                       0                       0                       0                       0                       0        3336.86040341176        3.93959529553165        757.561242343568        616.977968977968       0.110952440555815        24224.0360228516        6338590.56930106      0.0070897352201222 
                      2      0.0112112112112112      0.0854726974059648      0.0261906600423676    1.38271317625879E-11    7.58262672876827E-27    1.21313637732113E-09                       0                       0                       0                       0                       0                       0         3339.9864681536        3.95361801593984        752.678466162507        606.414845037558       0.111663325239457        24223.8766634783        6343533.21623902     0.00728491667345743 
                      2      0.0115615615615616      0.0859134537558997       0.026325718609192    1.29516860025408E-11    2.19909349869948E-26    1.13828071023644E-09                       0                       0                       0                       0                       0                       0        3342.44379589059        3.96531622839281        748.854043389563        597.575278527266       0.112239148517382        24223.7846415402        6347480.71229218     0.00746559306289297 
                      2      0.0119119119119119      0.0863531582097313      0.0264604552595366    1.20798687920932E-11    2.34214765021472E-26    1.06372654574481E-09                       0                       0                       0                       0                       0                       0        3344.89278446672        3.97700762633755        745.041190004144        588.751422229196       0.112813605734461        24223.6949200604        6351414.62398652     0.00767358452636269 
                      2      0.0122622622622623      0.0867937861518512      0.0265954745291419     1.1204865978953E-11     3.6245553519347E-26    9.88907683900705E-10                       0                       0                       0                       0                       0                       0        3347.34909421968          3.988705006925        741.218179537764        579.913773507188       0.113389262253628        24223.6031789455        6355360.46176009     0.00785759534108823 
                      2      0.0126126126126126      0.0871566447875204      0.0267066621950356     1.0498834541712E-11    1.94163806547437E-25    9.28295076020755E-10                       0                       0                       0                       0                       0                       0        3349.32851570997        3.99865629510992        738.142233989597         572.43092168785       0.113863311613835        24223.5548622152        6358573.82140689     0.00799452007965651 
                      2       0.012962962962963      0.0874971170544402      0.0268109889728209    9.84346692442444E-12    1.99916892586742E-25    8.71933331245637E-10                       0                       0                       0                       0                       0                       0        3351.16808188453        4.00813705130403        735.282580995066         565.33503798062       0.114308121215539        24223.5200713655        6361570.43951905     0.00816652350502206 
                      2      0.0133133133133133        0.08783758932136      0.0269153157506061    9.18809930713685E-12    2.05669978626047E-25    8.15571586470518E-10                       0                       0                       0                       0                       0                       0        3353.00764805909        4.01761780749813        732.422928000536         558.23915427339       0.114752930817243        24223.4852805159        6364567.05763121     0.00833852693038761 
                      2      0.0136636636636637      0.0881725023287614      0.0270179399196708    8.54289266693023E-12    3.90083072464457E-25    7.60075631621936E-10                       0                       0                       0                       0                       0                       0        3354.81667645573         4.0269503278408        729.612592236782        551.247744934373       0.115190472088514        24223.4528425882        6367516.42539499     0.00847289294784592 
                      2       0.014014014014014      0.0884333026752833      0.0270978549460256    8.05400306391041E-12     6.5644216267335E-25    7.17770552409634E-10                       0                       0                       0                       0                       0                       0        3356.18944022115        4.03463098816625        727.478773686818        545.606700892531       0.115531182929331        24223.4597609562        6369775.71275215     0.00858626160181478 
                      2      0.0143643643643644      0.0886930040673384      0.0271774337549587    7.56837914299691E-12    6.63442369845684E-25    6.75734003853756E-10                       0                       0                       0                       0                       0                       0        3357.55451707932        4.04230635964836        725.355339012995        539.984530173411       0.115870444936303        24223.4692998607         6372021.5829621     0.00872492070352374 
                      2      0.0147147147147147      0.0889527054593936      0.0272570125638917    7.08275522208341E-12    6.70442577018017E-25    6.33697455297877E-10                       0                       0                       0                       0                       0                       0        3358.91959393748        4.04998173113048        723.231904339171        534.362359454291       0.116209706943274        24223.4788387653        6374267.45317205     0.00886357980523269 
                      2      0.0150650650650651      0.0892136226902055      0.0273369633501763    6.59351828262191E-12    9.64386958330029E-25    5.91363815288888E-10                       0                       0                       0                       0                       0                       0        3360.29317527882        4.05766295397486        721.096981364933        528.719308054554        0.11655057188139        24223.4854784142         6376528.1675708     0.00897425857885171 
                      2      0.0154154154154154      0.0894102992129221      0.0273972295068493    6.23477217203441E-12    9.19348679933536E-25    5.60098639820392E-10                       0                       0                       0                       0                       0                       0        3361.30323916022        4.06388091568284        719.523063687582        524.304673147688       0.116807520054395        24223.5207973959        6378202.31937854     0.00905864981713572 
                      2      0.0157657657657658      0.0896052668649988      0.0274569726932675    5.88036652445957E-12    9.17522587297696E-25    5.29192605473671E-10                       0                       0                       0                       0                       0                       0        3362.30255573624        4.07008163700843        717.964335345354        519.921841153719       0.117062244885233        24223.5583405426        6379857.84959609     0.00916761826969319 
                      2      0.0161161161161161      0.0898002345170755      0.0275167158796857    5.52596087688472E-12    9.15696494661856E-25    4.98286571126949E-10                       0                       0                       0                       0                       0                       0        3363.30187231226        4.07628235833402        716.405607003125        515.539009159751        0.11731696971607        24223.5958836894        6381513.37981365     0.00927658672225066 
                      2      0.0164664664664665      0.0899956692578694      0.0275766019232507    5.17025451380623E-12    8.94903029928592E-25    4.67273863511507E-10                       0                       0                       0                       0                       0                       0        3364.30426799568        4.08248493459064        714.842692374456        511.147598402673       0.117572301060538         24223.632627068        6383174.39708057     0.00937550908727396 
                      2      0.0168168168168168      0.0901680370822676      0.0276294194390323    4.85919551536753E-12    7.24218734182182E-25     4.4007782727468E-10                       0                       0                       0                       0                       0                       0        3365.18160546991        4.08813018385543        713.473573946372        507.219238992967       0.117797487111391        24223.6785281132        6384630.65953713     0.00944847406859694 
                      2      0.0171671671671672      0.0903125135591288      0.0276736898946766    4.60322730995636E-12    5.57571598529886E-25    4.17577947515435E-10                       0                       0                       0                       0                       0                       0         3365.9062216928        4.09312977500486        712.339370142473        503.848932404155        0.11798622814367        24223.7375074116        6385835.47273284     0.00952085639449391 
                      2      0.0175175175175175      0.0904564356590971      0.0277177896731791    4.34871417813989E-12    5.51224567850536E-25    3.95197323150322E-10                       0                       0                       0                       0                       0                       0        3366.62732489906        4.09812730009405        711.209910216971        500.489421158715       0.118174241830278        24223.7976359497        6387033.92039466     0.00960433985861481 
                      2      0.0178678678678679      0.0906003577590655      0.0277618894516815    4.09420104632342E-12    5.44877537171185E-25     3.7281669878521E-10                       0                       0                       0                       0                       0                       0        3367.34842810532        4.10312482518323        710.080450291469        497.129909913276       0.118362255516886        24223.8577644878        6388232.36805648     0.00968782332273571 
                      2      0.0182182182182182      0.0907447601243347      0.0278061370904393    3.83842736168297E-12    3.99660039221734E-25    3.50332761622452E-10                       0                       0                       0                       0                       0                       0        3368.07257469237        4.10812414013245        708.946880670532        493.761046494432        0.11855089931433        24223.9168974217        6389436.33027904     0.00976168969862921 
                      2      0.0185685685685686      0.0908712975674573      0.0278449108836479    3.61614694912392E-12    2.08896398197062E-25    3.30732530062912E-10                       0                       0                       0                       0                       0                       0        3368.70264906746        4.11267139209792        707.959088915204        490.765658335264       0.118716208763444        24223.9811557216        6390484.79529553     0.00981707592782687 
                      2      0.0189189189189189      0.0909761784190746      0.0278770480947392    3.43513206805008E-12    1.71920353760913E-25    3.14675177926397E-10                       0                       0                       0                       0                       0                       0         3369.2177527705        4.11669062522866        707.148304128034        488.221932703132       0.118853229906995        24224.0530077658         6391342.2729807     0.00986946225125294 
                      2      0.0192692692692693      0.0910805222276877      0.0279090207281356    3.25544881328468E-12     1.7149253942019E-25    2.98727073700946E-10                       0                       0                       0                       0                       0                       0        3369.72959236081        4.12070722511629        706.341961372539        485.689152492496       0.118989553760839        24224.1254274818        6392193.82144767     0.00993179274879041 
                      2      0.0196196196196196      0.0911848660363008       0.027940993361532    3.07576555851929E-12    1.71064725079466E-25    2.82778969475494E-10                       0                       0                       0                       0                       0                       0        3370.24143195112        4.12472382500391        705.535618617044        483.156372281861       0.119125877614684        24224.1978471978        6393045.36991464     0.00999412324632788 
                      2        0.01996996996997      0.0912892434065694      0.0279729762799518    2.89599908586799E-12    1.68352886743096E-25    2.66824037974148E-10                       0                       0                       0                       0                       0                       0        3370.75347552701        4.12874058945191        704.728998263785        480.622908054372       0.119262245044548         24224.270231438        6393897.28891875      0.0100558322983883 