VARIABLES = "X"
 "Y"
 "rho_N2"
 "rho_O2"
 "rho_NO"
 "rho_N"
 "rho_O"
 "U"
 "V"
 "T"
 "Tv"
 "tke"
 "omega"
 "rho"
 "P"
 "H"
 "tau"
ZONE
DT=(DOUBLE,DOUBLE,DOUBLE,DOUBLE,DOUBLE,DOUBLE,DOUBLE,DOUBLE,DOUBLE,DOUBLE,DOUBLE,DOUBLE,DOUBLE,DOUBLE,DOUBLE,DOUBLE,DOUBLE)
                      0                     0.1       0.029899999499321     0.00916200038045645    2.78483400621012E-20    1.72639040537595E-23    1.48524489381872E-20                    3430                    -605        322.884002685547        322.884002685547      0.0414083898067474                    8800         0.0390620008111            3635.2109375                 6391335        3.05904698371887 
     0.0025025025025025                     0.1       0.029899999499321     0.00916200038045645    3.40810997236598E-20    1.72739565709467E-23    1.81765868209512E-20                    3430                    -605        322.884002685547        322.884002685547      0.0414083898067474                    8800         0.0390620008111            3635.2109375                 6391335        3.36219581720649 
      0.005005005005005                     0.1       0.029899999499321     0.00916200038045645    3.99544752648075E-20    1.72741661591652E-23    2.13090532638997E-20                    3430                    -605        322.884002685547        322.884002685547      0.0414083898067474                    8800         0.0390620008111            3635.2109375                 6391335        3.66534465069411 
    0.00750750750750751                     0.1       0.029899999499321     0.00916200038045645    4.58278508059551E-20    1.72743757473838E-23    2.44415197068482E-20                    3430                    -605        322.884002685547        322.884002685547      0.0414083898067474                    8800         0.0390620008111            3635.2109375                 6391335        3.96849348418173 
       0.01001001001001                     0.1       0.029899999499321     0.00916200038045645    5.17012263471028E-20    1.72745853356023E-23    2.75739861497967E-20                    3430                    -605        322.884002685547        322.884002685547      0.0414083898067474                    8800         0.0390620008111            3635.2109375                 6391335        4.27164231766935 
     0.0125125125125125                     0.1       0.029899999499321     0.00916200038045645    5.75746018882505E-20    1.72747949238209E-23    3.07064525927453E-20                    3430                    -605        322.884002685547        322.884002685547      0.0414083898067474                    8800         0.0390620008111            3635.2109375                 6391335        4.57479115115697 
      0.015015015015015                     0.1       0.029899999499321     0.00916200038045645    6.34479774293982E-20    1.72750045120394E-23    3.38389190356938E-20                    3430                    -605        322.884002685547        322.884002685547      0.0414083898067474                    8800         0.0390620008111            3635.2109375                 6391335        4.87793998464459 
     0.0175175175175175                     0.1       0.029899999499321     0.00916200038045645    6.93213529705458E-20     1.7275214100258E-23    3.69713854786423E-20                    3430                    -605        322.884002685547        322.884002685547      0.0414083898067474                    8800         0.0390620008111            3635.2109375                 6391335         5.1810888181322 
       0.02002002002002                     0.1       0.029899999499321     0.00916200038045645    7.51947285116935E-20    1.72754236884765E-23    4.01038519215908E-20                    3430                    -605        322.884002685547        322.884002685547      0.0414083898067474                    8800         0.0390620008111            3635.2109375                 6391335        5.48423765161982 
     0.0225225225225225                     0.1       0.029899999499321     0.00916200038045645    8.10681040528411E-20     1.7275633276695E-23    4.32363183645394E-20                    3430                    -605        322.884002685547        322.884002685547      0.0414083898067474                    8800         0.0390620008111            3635.2109375                 6391335        5.78738648510744 
      0.025025025025025                     0.1       0.029899999499321     0.00916200038045645    8.72644863756736E-20    1.72846894795188E-23    4.65410550092009E-20                    3430                    -605        322.884002685547        322.884002685547      0.0414083898067474                    8800         0.0390620008111            3635.2109375                 6391335        6.09053531859506 
     0.0275275275275275                     0.1       0.029899999499321     0.00916200038045645    9.44288940003859E-20    1.72935993204325E-23    5.03620726284379E-20                    3430                    -605        322.884002685547        322.884002685547      0.0414083898067474                    8800         0.0390620008111            3635.2109375                 6391335        6.11809492111206 
       0.03003003003003                     0.1       0.029899999499321     0.00916200038045645    1.01506495275382E-19    1.73102770112834E-23    5.41367956779642E-20                    3430                    -605        322.884002685547        322.884002685547      0.0414083898067474                    8800         0.0390620008111            3635.2109375                 6391335        6.11809492111206 
     0.0325325325325325                     0.1       0.029899999499321     0.00916200038045645    1.08584096550378E-19    1.73269547021343E-23    5.79115187274905E-20                    3430                    -605        322.884002685547        322.884002685547      0.0414083898067474                    8800         0.0390620008111            3635.2109375                 6391335        6.11809492111206 
      0.035035035035035                     0.1       0.029899999499321     0.00916200038045645    1.15661697825374E-19    1.73436323929851E-23    6.16862417770167E-20                    3430                    -605        322.884002685547        322.884002685547      0.0414083898067474                    8800         0.0390620008111            3635.2109375                 6391335        6.11809492111206 
     0.0375375375375375                     0.1       0.029899999499321     0.00916200038045645     1.2273929910037E-19     1.7360310083836E-23     6.5460964826543E-20                    3430                    -605        322.884002685547        322.884002685547      0.0414083898067474                    8800         0.0390620008111            3635.2109375                 6391335        6.11809492111206 
       0.04004004004004                     0.1       0.029899999499321     0.00916200038045645    1.29816900375366E-19    1.73769877746868E-23    6.92356878760693E-20                    3430                    -605        322.884002685547        322.884002685547      0.0414083898067474                    8800         0.0390620008111            3635.2109375                 6391335        6.11809492111206 
     0.0425425425425425                     0.1       0.029899999499321     0.00916200038045645    1.36894501650362E-19    1.73936654655377E-23    7.30104109255956E-20                    3430                    -605        322.884002685547        322.884002685547      0.0414083898067474                    8800         0.0390620008111            3635.2109375                 6391335        6.11809492111206 
      0.045045045045045                     0.1       0.029899999499321     0.00916200038045645    1.43972102925358E-19    1.74103431563885E-23    7.67851339751218E-20                    3430                    -605        322.884002685547        322.884002685547      0.0414083898067474                    8800         0.0390620008111            3635.2109375                 6391335        6.11809492111206 
     0.0475475475475476                     0.1       0.029899999499321     0.00916200038045645    1.51049704200354E-19    1.74270208472394E-23    8.05598570246481E-20                    3430                    -605        322.884002685547        322.884002685547      0.0414083898067474                    8800         0.0390620008111            3635.2109375                 6391335        6.11809492111206 
       0.05005005005005                     0.1       0.029899999499321     0.00916200038045645    1.58254840883794E-19    1.74379026290885E-23    8.44025974601167E-20                    3430                    -605        322.884002685547        322.884002685547      0.0414083898067474                    8800         0.0390620008111            3635.2109375                 6391335        6.11809492111206 
     0.0525525525525526                     0.1       0.029899999499321     0.00916200038045645    1.66097474578319E-19    1.74391018411355E-23    8.85853356556448E-20                    3430                    -605        322.884002685547        322.884002685547      0.0414083898067474                    8800         0.0390620008111            3635.2109375                 6391335        6.11809492111206 
     0.0550550550550551                     0.1       0.029899999499321     0.00916200038045645     1.7492222582598E-19    1.74391178027253E-23    9.32918697893076E-20                    3430                    -605        322.884002685547        322.884002685547      0.0414083898067474                    8800         0.0390620008111            3635.2109375                 6391335        6.11809492111206 
     0.0575575575575576                     0.1       0.029899999499321     0.00916200038045645    1.83820995290673E-19    1.74391736004135E-23    9.80378802985599E-20                    3430                    -605        322.884002685547        322.884002685547      0.0414083898067474                    8800         0.0390620008111            3635.2109375                 6391335        6.11809492111206 
     0.0600600600600601                     0.1       0.029899999499321     0.00916200038045645    1.92719764755367E-19    1.74392293981017E-23    1.02783890807812E-19                    3430                    -605        322.884002685547        322.884002685547      0.0414083898067474                    8800         0.0390620008111            3635.2109375                 6391335        6.11809492111206 
     0.0625625625625626                     0.1       0.029899999499321     0.00916200038045645     2.0161853422006E-19    1.74392851957899E-23    1.07529901317064E-19                    3430                    -605        322.884002685547        322.884002685547      0.0414083898067474                    8800         0.0390620008111            3635.2109375                 6391335        6.11809492111206 
     0.0650650650650651                     0.1       0.029899999499321     0.00916200038045645    2.10517303684753E-19    1.74393409934781E-23    1.12275911826317E-19                    3430                    -605        322.884002685547        322.884002685547      0.0414083898067474                    8800         0.0390620008111            3635.2109375                 6391335        6.11809492111206 
     0.0675675675675676                     0.1       0.029899999499321     0.00916200038045645    2.19416073149446E-19    1.74393967911663E-23    1.17021922335569E-19                    3430                    -605        322.884002685547        322.884002685547      0.0414083898067474                    8800         0.0390620008111            3635.2109375                 6391335        6.11809492111206 
     0.0700700700700701                     0.1       0.029899999499321     0.00916200038045645    2.28314842614139E-19    1.74394525888544E-23    1.21767932844821E-19                    3430                    -605        322.884002685547        322.884002685547      0.0414083898067474                    8800         0.0390620008111            3635.2109375                 6391335        6.11809492111206 
     0.0725725725725726                     0.1       0.029899999499321     0.00916200038045645    2.37213612078833E-19    1.74395083865426E-23    1.26513943354074E-19                    3430                    -605        322.884002685547        322.884002685547      0.0414083898067474                    8800         0.0390620008111            3635.2109375                 6391335        6.11809492111206 
     0.0750750750750751                     0.1       0.029899999499321     0.00916200038045645     2.4553343996372E-19    1.74392526018305E-23    1.30951185074166E-19                    3430                    -605        322.884002685547        322.884002685547      0.0414083898067474                    8800         0.0390620008111            3635.2109375                 6391335        6.11809492111206 
     0.0775775775775776                     0.1       0.029899999499321     0.00916200038045645    2.54628372489099E-19    1.09707306132475E-23    1.35801812955961E-19                    3430                    -605        322.884002685547        322.884002685547      0.0414083898067474                    8800         0.0390620008111            3635.2109375                 6391335        6.11809492111206 
     0.0800800800800801                     0.1       0.029899999499321     0.00916200038045645    2.64455524056117E-19    9.30701006396721E-24    1.41042956459706E-19                    3430                    -605        322.884002685547        322.884002685547      0.0414083898067474                    8800         0.0390620008111            3635.2109375                 6391335        6.11809492111206 
     0.0825825825825826                     0.1       0.029899999499321     0.00916200038045645    2.74346874855151E-19    9.13334205620821E-24    1.46318339539269E-19                    3430                    -605        322.884002685547        322.884002685547      0.0414083898067474                    8800         0.0390620008111            3635.2109375                 6391335        6.11809492111206 
     0.0850850850850851                     0.1       0.029899999499321     0.00916200038045645    2.84238225654185E-19    8.95967404844922E-24    1.51593722618832E-19                    3430                    -605        322.884002685547        322.884002685547      0.0414083898067474                    8800         0.0390620008111            3635.2109375                 6391335        6.11809492111206 
     0.0875875875875876                     0.1       0.029899999499321     0.00916200038045645    2.94129576453218E-19    8.78600604069023E-24    1.56869105698395E-19                    3430                    -605        322.884002685547        322.884002685547      0.0414083898067474                    8800         0.0390620008111            3635.2109375                 6391335        6.11809492111206 
     0.0900900900900901                     0.1       0.029899999499321     0.00916200038045645    3.04020927252252E-19    8.61233803293123E-24    1.62144488777958E-19                    3430                    -605        322.884002685547        322.884002685547      0.0414083898067474                    8800         0.0390620008111            3635.2109375                 6391335        6.11809492111206 
     0.0925925925925926                     0.1       0.029899999499321     0.00916200038045645    3.13912278051286E-19    8.43867002517224E-24    1.67419871857521E-19                    3430                    -605        322.884002685547        322.884002685547      0.0414083898067474                    8800         0.0390620008111            3635.2109375                 6391335        6.11809492111206 
     0.0950950950950951                     0.1       0.029899999499321     0.00916200038045645    3.23803628850319E-19    8.26500201741324E-24    1.72695254937084E-19                    3430                    -605        322.884002685547        322.884002685547      0.0414083898067474                    8800         0.0390620008111            3635.2109375                 6391335        6.11809492111206 
     0.0975975975975976                     0.1       0.029899999499321     0.00916200038045645    3.33694979649353E-19    8.09133400965425E-24    1.77970638016647E-19                    3430                    -605        322.884002685547        322.884002685547      0.0414083898067474                    8800         0.0390620008111            3635.2109375                 6391335        6.11809492111206 
        0.1001001001001                     0.1       0.029899999499321     0.00916200038045645     3.4338550577973E-19    3.25656183386853E-24      1.831389146519E-19                    3430                    -605        322.884002685547        322.884002685547      0.0414083898067474                    8800         0.0390620008111            3635.2109375                 6391335        6.11809492111206 
      0.102602602602603                     0.1       0.029899999499321     0.00916200038045645    3.53594043894332E-19    5.67583161703283E-24    1.88583469601618E-19                    3430                    -605        322.884002685547        322.884002685547      0.0414083898067474                    8800         0.0390620008111            3635.2109375                 6391335        6.11809492111206 
      0.105105105105105                     0.1       0.029899999499321     0.00916200038045645    3.63680667997704E-19     8.1297811894988E-24    1.93963008428138E-19                    3430                    -605        322.884002685547        322.884002685547      0.0414083898067474                    8800         0.0390620008111            3635.2109375                 6391335        6.11809492111206 
      0.107607607607608                     0.1       0.029899999499321     0.00916200038045645    3.73583657102536E-19     8.3036075659642E-24    1.99244609192292E-19                    3430                    -605        322.884002685547        322.884002685547      0.0414083898067474                    8800         0.0390620008111            3635.2109375                 6391335        6.11809492111206 
       0.11011011011011                     0.1       0.029899999499321     0.00916200038045645    3.83486646207369E-19     8.4774339424296E-24    2.04526209956447E-19                    3430                    -605        322.884002685547        322.884002685547      0.0414083898067474                    8800         0.0390620008111            3635.2109375                 6391335        6.11809492111206 
      0.112612612612613                     0.1       0.029899999499321     0.00916200038045645    3.93389635312201E-19      8.651260318895E-24    2.09807810720602E-19                    3430                    -605        322.884002685547        322.884002685547      0.0414083898067474                    8800         0.0390620008111            3635.2109375                 6391335        6.11809492111206 
      0.115115115115115                     0.1       0.029899999499321     0.00916200038045645    4.03292624417034E-19     8.8250866953604E-24    2.15089411484757E-19                    3430                    -605        322.884002685547        322.884002685547      0.0414083898067474                    8800         0.0390620008111            3635.2109375                 6391335        6.11809492111206 
      0.117617617617618                     0.1       0.029899999499321     0.00916200038045645    4.13195613521867E-19     8.9989130718258E-24    2.20371012248912E-19                    3430                    -605        322.884002685547        322.884002685547      0.0414083898067474                    8800         0.0390620008111            3635.2109375                 6391335        6.11809492111206 
       0.12012012012012                     0.1       0.029899999499321     0.00916200038045645    4.23098602626699E-19     9.1727394482912E-24    2.25652613013067E-19                    3430                    -605        322.884002685547        322.884002685547      0.0414083898067474                    8800         0.0390620008111            3635.2109375                 6391335        6.11809492111206 
      0.122622622622623                     0.1       0.029899999499321     0.00916200038045645    4.33001591731531E-19     9.3465658247566E-24    2.30934213777222E-19                    3430                    -605        322.884002685547        322.884002685547      0.0414083898067474                    8800         0.0390620008111            3635.2109375                 6391335        6.11809492111206 
      0.125125125125125                     0.1       0.029899999499321     0.00916200038045645    4.43215766790758E-19    1.33842652021486E-23    2.36381779360996E-19                    3430                    -605        322.884002685547        322.884002685547      0.0414083898067474                    8800         0.0390620008111            3635.2109375                 6391335        6.11809492111206 
      0.127627627627628                     0.1       0.029899999499321     0.00916200038045645    4.52802956307311E-19    1.74282227939002E-23    2.41494949509529E-19                    3430                    -605        322.884002685547        322.884002685547      0.0414083898067474                    8800         0.0390620008111            3635.2109375                 6391335        5.95273888615637 
       0.13013013013013                     0.1       0.029899999499321     0.00916200038045645    4.61652326554219E-19    1.74327540737715E-23    2.46214608415028E-19                    3430                    -605        322.884002685547        322.884002685547      0.0414083898067474                    8800         0.0390620008111            3635.2109375                 6391335        5.64959083528354 
      0.132632632632633                     0.1       0.029899999499321     0.00916200038045645    4.70561572570277E-19    1.74339146039725E-23    2.50966197751443E-19                    3430                    -605        322.884002685547        322.884002685547      0.0414083898067474                    8800         0.0390620008111            3635.2109375                 6391335        5.34644278441071 
      0.135135135135135                     0.1       0.029899999499321     0.00916200038045645    4.79470818586335E-19    1.74350751341735E-23    2.55717787087859E-19                    3430                    -605        322.884002685547        322.884002685547      0.0414083898067474                    8800         0.0390620008111            3635.2109375                 6391335        5.04329473353787 
      0.137637637637638                     0.1       0.029899999499321     0.00916200038045645    4.88380064602392E-19    1.74362356643746E-23    2.60469376424275E-19                    3430                    -605        322.884002685547        322.884002685547      0.0414083898067474                    8800         0.0390620008111            3635.2109375                 6391335        4.74014668266504 
       0.14014014014014                     0.1       0.029899999499321     0.00916200038045645     4.9728931061845E-19    1.74373961945756E-23     2.6522096576069E-19                    3430                    -605        322.884002685547        322.884002685547      0.0414083898067474                    8800         0.0390620008111            3635.2109375                 6391335        4.43699863179221 
      0.142642642642643                     0.1       0.029899999499321     0.00916200038045645    5.06198556634508E-19    1.74385567247766E-23    2.69972555097106E-19                    3430                    -605        322.884002685547        322.884002685547      0.0414083898067474                    8800         0.0390620008111            3635.2109375                 6391335        4.13385058091937 
      0.145145145145145                     0.1       0.029899999499321     0.00916200038045645    5.15107802650566E-19    1.74397172549776E-23    2.74724144433522E-19                    3430                    -605        322.884002685547        322.884002685547      0.0414083898067474                    8800         0.0390620008111            3635.2109375                 6391335        3.83070253004654 
      0.147647647647648                     0.1       0.029899999499321     0.00916200038045645    5.24017048666624E-19    1.74408777851787E-23    2.79475733769937E-19                    3430                    -605        322.884002685547        322.884002685547      0.0414083898067474                    8800         0.0390620008111            3635.2109375                 6391335        3.52755447917371 
       0.15015015015015                     0.1       0.029899999499321     0.00916200038045645    5.32866420823036E-19     1.7445408957553E-23    2.84195393693732E-19                    3430                    -605        322.884002685547        322.884002685547      0.0414083898067474                    8800         0.0390620008111            3635.2109375                 6391335        3.22440642830088 
      0.152652652652653                     0.1       0.029899999499321     0.00916200038045645    5.40580318581392E-19    1.75005094196108E-23    2.88309493922036E-19                    3430                    -605        322.884002685547        322.884002685547      0.0414083898067474                    8800         0.0390620008111            3635.2109375                 6391335        3.19683607785282 
      0.155155155155155                     0.1       0.029899999499321     0.00916200038045645    5.47375347575969E-19    2.73774252193507E-23    2.91933534116605E-19                    3430                    -605        322.884002685547        322.884002685547      0.0414083898067474                    8800         0.0390620008111            3635.2109375                 6391335        3.49998520202696 
      0.157657657657658                     0.1       0.029899999499321     0.00916200038045645    5.54419075276722E-19    4.50429811366742E-23      2.956901965753E-19                    3430                    -605        322.884002685547        322.884002685547      0.0414083898067474                    8800         0.0390620008111            3635.2109375                 6391335         3.8031343262011 
       0.16016016016016                     0.1       0.029899999499321     0.00916200038045645    5.61462802977474E-19    6.27085370539977E-23    2.99446859033996E-19                    3430                    -605        322.884002685547        322.884002685547      0.0414083898067474                    8800         0.0390620008111            3635.2109375                 6391335        4.10628345037524 
      0.162662662662663                     0.1       0.029899999499321     0.00916200038045645    5.68506530678227E-19    8.03740929713213E-23    3.03203521492691E-19                    3430                    -605        322.884002685547        322.884002685547      0.0414083898067474                    8800         0.0390620008111            3635.2109375                 6391335        4.40943257454938 
      0.165165165165165                     0.1       0.029899999499321     0.00916200038045645    5.75550258378979E-19    9.80396488886448E-23    3.06960183951387E-19                    3430                    -605        322.884002685547        322.884002685547      0.0414083898067474                    8800         0.0390620008111            3635.2109375                 6391335        4.71258169872352 
      0.167667667667668                     0.1       0.029899999499321     0.00916200038045645    5.82593986079732E-19    1.15705204805968E-22    3.10716846410082E-19                    3430                    -605        322.884002685547        322.884002685547      0.0414083898067474                    8800         0.0390620008111            3635.2109375                 6391335        5.01573082289766 
       0.17017017017017                     0.1       0.029899999499321     0.00916200038045645    5.89637713780484E-19    1.33370760723292E-22    3.14473508868778E-19                    3430                    -605        322.884002685547        322.884002685547      0.0414083898067474                    8800         0.0390620008111            3635.2109375                 6391335         5.3188799470718 
      0.172672672672673                     0.1       0.029899999499321     0.00916200038045645    5.96681441481237E-19    1.51036316640615E-22    3.18230171327473E-19                    3430                    -605        322.884002685547        322.884002685547      0.0414083898067474                    8800         0.0390620008111            3635.2109375                 6391335        5.62202907124594 
      0.175175175175175                     0.1       0.029899999499321     0.00916200038045645    6.03578418771789E-19    1.64106005736848E-22    3.21908576959016E-19                    3430                    -605        322.884002685547        322.884002685547      0.0414083898067474                    8800         0.0390620008111            3635.2109375                 6391335        5.92517819542008 
      0.177677677677678                     0.1       0.029899999499321     0.00916200038045645    6.10420958349044E-19    1.64177037207846E-22    3.25557928358891E-19                    3430                    -605        322.884002685547        322.884002685547      0.0414083898067474                    8800         0.0390620008111            3635.2109375                 6391335        6.11809492111206 