VARIABLES = "X"
 "Y"
 "rho_N2"
 "rho_O2"
 "rho_NO"
 "rho_N"
 "rho_O"
 "rho_NOp"
 "rho_N2p"
 "rho_O2p"
 "rho_Np"
 "rho_Op"
 "rho_e"
 "U"
 "V"
 "T"
 "Tv"
 "rho"
 "P"
 "H"
 "tau"
ZONE
DT=(DOUBLE,DOUBLE,DOUBLE,DOUBLE,DOUBLE,DOUBLE,DOUBLE,DOUBLE,DOUBLE,DOUBLE,DOUBLE,DOUBLE,DOUBLE,DOUBLE,DOUBLE,DOUBLE,DOUBLE,DOUBLE,DOUBLE,DOUBLE,DOUBLE)
                      0                     0.1       0.029899999499321     0.00916200038045645    1.74842778626378E-20    2.86299882603116E-29    9.32494582923522E-21                       0                       0                       0                       0                       0                       0                    3430                    -919        322.884002685547        322.884002685547         0.0390620008111            3635.2109375                 6630603        3.05904698371887 
     0.0025025025025025                     0.1       0.029899999499321     0.00916200038045645    2.38670957504325E-20    4.07299728314946E-29    1.27291155855609E-20                       0                       0                       0                       0                       0                       0                    3430                    -919        322.884002685547        322.884002685547         0.0390620008111            3635.2109375                 6630603        3.36219581720649 
      0.005005005005005                     0.1       0.029899999499321     0.00916200038045645    3.02411572169574E-20     4.1544463473294E-29     1.6128615909605E-20                       0                       0                       0                       0                       0                       0                    3430                    -919        322.884002685547        322.884002685547         0.0390620008111            3635.2109375                 6630603        3.66534465069411 
    0.00750750750750751                     0.1       0.029899999499321     0.00916200038045645    3.66152186834823E-20    4.23589541150934E-29    1.95281162336491E-20                       0                       0                       0                       0                       0                       0                    3430                    -919        322.884002685547        322.884002685547         0.0390620008111            3635.2109375                 6630603        3.96849348418173 
       0.01001001001001                     0.1       0.029899999499321     0.00916200038045645    4.29892801500072E-20    4.31734447568928E-29    2.29276165576932E-20                       0                       0                       0                       0                       0                       0                    3430                    -919        322.884002685547        322.884002685547         0.0390620008111            3635.2109375                 6630603        4.27164231766935 
     0.0125125125125125                     0.1       0.029899999499321     0.00916200038045645    4.93633416165321E-20    4.39879353986922E-29    2.63271168817373E-20                       0                       0                       0                       0                       0                       0                    3430                    -919        322.884002685547        322.884002685547         0.0390620008111            3635.2109375                 6630603        4.57479115115697 
      0.015015015015015                     0.1       0.029899999499321     0.00916200038045645     5.5737403083057E-20    4.48024260404916E-29    2.97266172057814E-20                       0                       0                       0                       0                       0                       0                    3430                    -919        322.884002685547        322.884002685547         0.0390620008111            3635.2109375                 6630603        4.87793998464459 
     0.0175175175175175                     0.1       0.029899999499321     0.00916200038045645    6.21114645495819E-20     4.5616916682291E-29    3.31261175298255E-20                       0                       0                       0                       0                       0                       0                    3430                    -919        322.884002685547        322.884002685547         0.0390620008111            3635.2109375                 6630603         5.1810888181322 
       0.02002002002002                     0.1       0.029899999499321     0.00916200038045645    6.84855260161068E-20    4.64314073240904E-29    3.65256178538695E-20                       0                       0                       0                       0                       0                       0                    3430                    -919        322.884002685547        322.884002685547         0.0390620008111            3635.2109375                 6630603        5.48423765161982 
     0.0225225225225225                     0.1       0.029899999499321     0.00916200038045645    7.48595874826317E-20    4.72458979658898E-29    3.99251181779136E-20                       0                       0                       0                       0                       0                       0                    3430                    -919        322.884002685547        322.884002685547         0.0390620008111            3635.2109375                 6630603        5.78738648510744 
      0.025025025025025                     0.1       0.029899999499321     0.00916200038045645    8.12415190338175E-20    5.82035498294053E-29    4.33288152880924E-20                       0                       0                       0                       0                       0                       0                    3430                    -919        322.884002685547        322.884002685547         0.0390620008111            3635.2109375                 6630603        6.09053531859506 
     0.0275275275275275                     0.1       0.029899999499321     0.00916200038045645      9.088394122057E-20    8.27811994908837E-29    4.84714398803413E-20                       0                       0                       0                       0                       0                       0                    3430                    -919        322.884002685547        322.884002685547         0.0390620008111            3635.2109375                 6630603        6.11809492111206 
       0.03003003003003                     0.1       0.029899999499321     0.00916200038045645    1.00617264419536E-19    1.07955730680883E-28     5.3662546269564E-20                       0                       0                       0                       0                       0                       0                    3430                    -919        322.884002685547        322.884002685547         0.0390620008111            3635.2109375                 6630603        6.11809492111206 
     0.0325325325325325                     0.1       0.029899999499321     0.00916200038045645    1.10350587618503E-19    1.33130261870883E-28    5.88536526587867E-20                       0                       0                       0                       0                       0                       0                    3430                    -919        322.884002685547        322.884002685547         0.0390620008111            3635.2109375                 6630603        6.11809492111206 
      0.035035035035035                     0.1       0.029899999499321     0.00916200038045645    1.20083910817469E-19    1.58304793060882E-28    6.40447590480094E-20                       0                       0                       0                       0                       0                       0                    3430                    -919        322.884002685547        322.884002685547         0.0390620008111            3635.2109375                 6630603        6.11809492111206 
     0.0375375375375375                     0.1       0.029899999499321     0.00916200038045645    1.29817234016436E-19    1.83479324250882E-28    6.92358654372321E-20                       0                       0                       0                       0                       0                       0                    3430                    -919        322.884002685547        322.884002685547         0.0390620008111            3635.2109375                 6630603        6.11809492111206 
       0.04004004004004                     0.1       0.029899999499321     0.00916200038045645    1.39550557215402E-19    2.08653855440881E-28    7.44269718264548E-20                       0                       0                       0                       0                       0                       0                    3430                    -919        322.884002685547        322.884002685547         0.0390620008111            3635.2109375                 6630603        6.11809492111206 
     0.0425425425425425                     0.1       0.029899999499321     0.00916200038045645    1.49283880414368E-19    2.33828386630881E-28    7.96180782156775E-20                       0                       0                       0                       0                       0                       0                    3430                    -919        322.884002685547        322.884002685547         0.0390620008111            3635.2109375                 6630603        6.11809492111206 
      0.045045045045045                     0.1       0.029899999499321     0.00916200038045645    1.59017203613335E-19     2.5900291782088E-28    8.48091846049001E-20                       0                       0                       0                       0                       0                       0                    3430                    -919        322.884002685547        322.884002685547         0.0390620008111            3635.2109375                 6630603        6.11809492111206 
     0.0475475475475476                     0.1       0.029899999499321     0.00916200038045645    1.68750526812301E-19     2.8417744901088E-28    9.00002909941228E-20                       0                       0                       0                       0                       0                       0                    3430                    -919        322.884002685547        322.884002685547         0.0390620008111            3635.2109375                 6630603        6.11809492111206 
       0.05005005005005                     0.1       0.029899999499321     0.00916200038045645     1.7865421482569E-19    3.09731128948858E-28    9.52822576543435E-20                       0                       0                       0                       0                       0                       0                    3430                    -919        322.884002685547        322.884002685547         0.0390620008111            3635.2109375                 6630603        6.11809492111206 
     0.0525525525525526                     0.1       0.029899999499321     0.00916200038045645    1.88714496231169E-19    5.22284433803834E-28    1.00647738016022E-19                       0                       0                       0                       0                       0                       0                    3430                    -919        322.884002685547        322.884002685547         0.0390620008111            3635.2109375                 6630603        6.11809492111206 
     0.0550550550550551                     0.1       0.029899999499321     0.00916200038045645     1.9923581176139E-19    5.89639681880224E-28    1.06259101376962E-19                       0                       0                       0                       0                       0                       0                    3430                    -919        322.884002685547        322.884002685547         0.0390620008111            3635.2109375                 6630603        6.11809492111206 
     0.0575575575575576                     0.1       0.029899999499321     0.00916200038045645    2.09795473984354E-19    6.40767287244782E-28    1.11890916191296E-19                       0                       0                       0                       0                       0                       0                    3430                    -919        322.884002685547        322.884002685547         0.0390620008111            3635.2109375                 6630603        6.11809492111206 
     0.0600600600600601                     0.1       0.029899999499321     0.00916200038045645    2.20355136207318E-19    6.91894892609339E-28    1.17522731005629E-19                       0                       0                       0                       0                       0                       0                    3430                    -919        322.884002685547        322.884002685547         0.0390620008111            3635.2109375                 6630603        6.11809492111206 
     0.0625625625625626                     0.1       0.029899999499321     0.00916200038045645    2.30914798430282E-19    7.43022497973896E-28    1.23154545819962E-19                       0                       0                       0                       0                       0                       0                    3430                    -919        322.884002685547        322.884002685547         0.0390620008111            3635.2109375                 6630603        6.11809492111206 
     0.0650650650650651                     0.1       0.029899999499321     0.00916200038045645    2.41474460653246E-19    7.94150103338454E-28    1.28786360634295E-19                       0                       0                       0                       0                       0                       0                    3430                    -919        322.884002685547        322.884002685547         0.0390620008111            3635.2109375                 6630603        6.11809492111206 
     0.0675675675675676                     0.1       0.029899999499321     0.00916200038045645     2.5203412287621E-19    8.45277708703011E-28    1.34418175448628E-19                       0                       0                       0                       0                       0                       0                    3430                    -919        322.884002685547        322.884002685547         0.0390620008111            3635.2109375                 6630603        6.11809492111206 
     0.0700700700700701                     0.1       0.029899999499321     0.00916200038045645    2.62593785099174E-19    8.96405314067569E-28    1.40049990262961E-19                       0                       0                       0                       0                       0                       0                    3430                    -919        322.884002685547        322.884002685547         0.0390620008111            3635.2109375                 6630603        6.11809492111206 
     0.0725725725725726                     0.1       0.029899999499321     0.00916200038045645    2.73153447322138E-19    9.47532919432126E-28    1.45681805077295E-19                       0                       0                       0                       0                       0                       0                    3430                    -919        322.884002685547        322.884002685547         0.0390620008111            3635.2109375                 6630603        6.11809492111206 
     0.0750750750750751                     0.1       0.029899999499321     0.00916200038045645    2.83413176693877E-19    1.12558680706639E-27     1.5115365661216E-19                       0                       0                       0                       0                       0                       0                    3430                    -919        322.884002685547        322.884002685547         0.0390620008111            3635.2109375                 6630603        6.11809492111206 
     0.0775775775775776                     0.1       0.029899999499321     0.00916200038045645    2.92740191990716E-19    1.36490920847588E-27    1.56128067176867E-19                       0                       0                       0                       0                       0                       0                    3430                    -919        322.884002685547        322.884002685547         0.0390620008111            3635.2109375                 6630603        6.11809492111206 
     0.0800800800800801                     0.1       0.029899999499321     0.00916200038045645     3.0269111602158E-19    1.42730598286193E-27    1.61435231349062E-19                       0                       0                       0                       0                       0                       0                    3430                    -919        322.884002685547        322.884002685547         0.0390620008111            3635.2109375                 6630603        6.11809492111206 
     0.0825825825825826                     0.1       0.029899999499321     0.00916200038045645    3.12828815779697E-19    1.45438147397052E-27    1.66842009249753E-19                       0                       0                       0                       0                       0                       0                    3430                    -919        322.884002685547        322.884002685547         0.0390620008111            3635.2109375                 6630603        6.11809492111206 
     0.0850850850850851                     0.1       0.029899999499321     0.00916200038045645    3.22966515537815E-19    1.48145696507912E-27    1.72248787150445E-19                       0                       0                       0                       0                       0                       0                    3430                    -919        322.884002685547        322.884002685547         0.0390620008111            3635.2109375                 6630603        6.11809492111206 
     0.0875875875875876                     0.1       0.029899999499321     0.00916200038045645    3.33104215295932E-19    1.50853245618771E-27    1.77655565051136E-19                       0                       0                       0                       0                       0                       0                    3430                    -919        322.884002685547        322.884002685547         0.0390620008111            3635.2109375                 6630603        6.11809492111206 
     0.0900900900900901                     0.1       0.029899999499321     0.00916200038045645    3.43241915054049E-19    1.53560794729631E-27    1.83062342951827E-19                       0                       0                       0                       0                       0                       0                    3430                    -919        322.884002685547        322.884002685547         0.0390620008111            3635.2109375                 6630603        6.11809492111206 
     0.0925925925925926                     0.1       0.029899999499321     0.00916200038045645    3.53379614812166E-19     1.5626834384049E-27    1.88469120852519E-19                       0                       0                       0                       0                       0                       0                    3430                    -919        322.884002685547        322.884002685547         0.0390620008111            3635.2109375                 6630603        6.11809492111206 
     0.0950950950950951                     0.1       0.029899999499321     0.00916200038045645    3.63517314570283E-19     1.5897589295135E-27     1.9387589875321E-19                       0                       0                       0                       0                       0                       0                    3430                    -919        322.884002685547        322.884002685547         0.0390620008111            3635.2109375                 6630603        6.11809492111206 
     0.0975975975975976                     0.1       0.029899999499321     0.00916200038045645      3.736550143284E-19    1.61683442062209E-27    1.99282676653901E-19                       0                       0                       0                       0                       0                       0                    3430                    -919        322.884002685547        322.884002685547         0.0390620008111            3635.2109375                 6630603        6.11809492111206 
        0.1001001001001                     0.1       0.029899999499321     0.00916200038045645    3.83208452057815E-19    1.75440009655096E-27    2.04377848116464E-19                       0                       0                       0                       0                       0                       0                    3430                    -919        322.884002685547        322.884002685547         0.0390620008111            3635.2109375                 6630603        6.11809492111206 
      0.102602602602603                     0.1       0.029899999499321     0.00916200038045645    3.92711872706082E-19    8.94716577902166E-27     2.0944633940832E-19                       0                       0                       0                       0                       0                       0                    3430                    -919        322.884002685547        322.884002685547         0.0390620008111            3635.2109375                 6630603        6.11809492111206 
      0.105105105105105                     0.1       0.029899999499321     0.00916200038045645     4.0221806379155E-19    1.21590133578834E-26    2.14516307090887E-19                       0                       0                       0                       0                       0                       0                    3430                    -919        322.884002685547        322.884002685547         0.0390620008111            3635.2109375                 6630603        6.11809492111206 
      0.107607607607608                     0.1       0.029899999499321     0.00916200038045645    4.11632268894199E-19    1.25491151939244E-26    2.19537216052024E-19                       0                       0                       0                       0                       0                       0                    3430                    -919        322.884002685547        322.884002685547         0.0390620008111            3635.2109375                 6630603        6.11809492111206 
       0.11011011011011                     0.1       0.029899999499321     0.00916200038045645    4.21046473996847E-19    1.29392170299653E-26    2.24558125013161E-19                       0                       0                       0                       0                       0                       0                    3430                    -919        322.884002685547        322.884002685547         0.0390620008111            3635.2109375                 6630603        6.11809492111206 
      0.112612612612613                     0.1       0.029899999499321     0.00916200038045645    4.30460679099496E-19    1.33293188660062E-26    2.29579033974298E-19                       0                       0                       0                       0                       0                       0                    3430                    -919        322.884002685547        322.884002685547         0.0390620008111            3635.2109375                 6630603        6.11809492111206 
      0.115115115115115                     0.1       0.029899999499321     0.00916200038045645    4.39874884202145E-19    1.37194207020472E-26    2.34599942935435E-19                       0                       0                       0                       0                       0                       0                    3430                    -919        322.884002685547        322.884002685547         0.0390620008111            3635.2109375                 6630603        6.11809492111206 
      0.117617617617618                     0.1       0.029899999499321     0.00916200038045645    4.49289089304793E-19    1.41095225380881E-26    2.39620851896572E-19                       0                       0                       0                       0                       0                       0                    3430                    -919        322.884002685547        322.884002685547         0.0390620008111            3635.2109375                 6630603        6.11809492111206 
       0.12012012012012                     0.1       0.029899999499321     0.00916200038045645    4.58703294407442E-19     1.4499624374129E-26    2.44641760857709E-19                       0                       0                       0                       0                       0                       0                    3430                    -919        322.884002685547        322.884002685547         0.0390620008111            3635.2109375                 6630603        6.11809492111206 
      0.122622622622623                     0.1       0.029899999499321     0.00916200038045645     4.6811749951009E-19      1.488972621017E-26    2.49662669818846E-19                       0                       0                       0                       0                       0                       0                    3430                    -919        322.884002685547        322.884002685547         0.0390620008111            3635.2109375                 6630603        6.11809492111206 
      0.125125125125125                     0.1       0.029899999499321     0.00916200038045645    4.77687583100402E-19    2.00615289693405E-26    2.54766713177952E-19                       0                       0                       0                       0                       0                       0                    3430                    -919        322.884002685547        322.884002685547         0.0390620008111            3635.2109375                 6630603        6.11809492111206 
      0.127627627627628                     0.1       0.029899999499321     0.00916200038045645     4.8849648233148E-19    4.31756298211281E-26    2.60531469696819E-19                       0                       0                       0                       0                       0                       0                    3430                    -919        322.884002685547        322.884002685547         0.0390620008111            3635.2109375                 6630603        5.95273888615637 
       0.13013013013013                     0.1       0.029899999499321     0.00916200038045645    4.99514825849012E-19    6.93349145522264E-26    2.66407928297727E-19                       0                       0                       0                       0                       0                       0                    3430                    -919        322.884002685547        322.884002685547         0.0390620008111            3635.2109375                 6630603        5.64959083528354 
      0.132632632632633                     0.1       0.029899999499321     0.00916200038045645    5.10173608484037E-19    9.17302279780642E-26    2.72092614589832E-19                       0                       0                       0                       0                       0                       0                    3430                    -919        322.884002685547        322.884002685547         0.0390620008111            3635.2109375                 6630603        5.34644278441071 
      0.135135135135135                     0.1       0.029899999499321     0.00916200038045645    5.20832391119062E-19    1.14125541403902E-25    2.77777300881937E-19                       0                       0                       0                       0                       0                       0                    3430                    -919        322.884002685547        322.884002685547         0.0390620008111            3635.2109375                 6630603        5.04329473353787 
      0.137637637637638                     0.1       0.029899999499321     0.00916200038045645    5.31491173754087E-19     1.3652085482974E-25    2.83461987174043E-19                       0                       0                       0                       0                       0                       0                    3430                    -919        322.884002685547        322.884002685547         0.0390620008111            3635.2109375                 6630603        4.74014668266504 
       0.14014014014014                     0.1       0.029899999499321     0.00916200038045645    5.42149956389112E-19    1.58916168255578E-25    2.89146673466148E-19                       0                       0                       0                       0                       0                       0                    3430                    -919        322.884002685547        322.884002685547         0.0390620008111            3635.2109375                 6630603        4.43699863179221 
      0.142642642642643                     0.1       0.029899999499321     0.00916200038045645    5.52808739024137E-19    1.81311481681416E-25    2.94831359758253E-19                       0                       0                       0                       0                       0                       0                    3430                    -919        322.884002685547        322.884002685547         0.0390620008111            3635.2109375                 6630603        4.13385058091937 