VARIABLES = "X"
 "Y"
 "rho_N2"
 "rho_O2"
 "rho_NO"
 "rho_N"
 "rho_O"
 "U"
 "V"
 "T"
 "Tv"
 "tke"
 "omega"
 "rho"
 "P"
 "H"
 "tau"
ZONE
DT=(DOUBLE,DOUBLE,DOUBLE,DOUBLE,DOUBLE,DOUBLE,DOUBLE,DOUBLE,DOUBLE,DOUBLE,DOUBLE,DOUBLE,DOUBLE,DOUBLE,DOUBLE,DOUBLE,DOUBLE)
                    1.5                     0.3      0.0304981384617773     0.00931889104434727    1.60346948977401E-05    1.05582960386393E-09    2.01619613148806E-05        3424.90127039781       -3400.46551089518        388.874668735485        486.686790519854      0.0406630657907253        8641.60592271266      0.0398532249732851        4519.98671537517         12053480.691629        1.06697072207342 
       1.50075075075075                     0.3      0.0305016423722504     0.00931985155195064     1.6103876603292E-05    1.05584564134609E-09    2.02482266907275E-05        3424.87091695634       -3400.29852341837        389.233931872827        487.644024438204      0.0406583298965585        8640.59942523863      0.0398578449121367        4524.53663238102        12053230.6686912        1.05384926909667 
        1.5015015015015                     0.3      0.0305051462827235       0.009320812059554     1.6173058308844E-05    1.05586167882824E-09    2.03344920665744E-05        3424.84056351486       -3400.13153594155         389.59319501017        488.601258356554      0.0406535940023917         8639.5929277646      0.0398624648509882        4529.08654938688        12052980.6457534        1.04072781611993 
       1.50225225225225                     0.3      0.0305086501931965     0.00932177256715737     1.6242240014396E-05     1.0558777163104E-09    2.04207574424213E-05        3424.81021007338       -3399.96454846474        389.952458147512        489.558492274904      0.0406488581082249        8638.58643029058      0.0398670847898397        4533.63646639273        12052730.6228156        1.02760636314319 
         1.503003003003                     0.3      0.0305121541036696     0.00932273307476074    1.63114217199479E-05    1.05589375379256E-09    2.05070228182682E-05        3424.77985663191       -3399.79756098792        390.311721284855        490.515726193255      0.0406441222140581        8637.57993281655      0.0398717047286912        4538.18638339858        12052480.5998779        1.01448491016644 
       1.50375375375375                     0.3      0.0305156580141427      0.0093236935823641    1.63806034254999E-05    1.05590979127472E-09     2.0593288194115E-05        3424.74950319043       -3399.63057351111        390.670984422197        491.472960111605      0.0406393863198913        8636.57343534252      0.0398763246675427        4542.73630040443        12052230.5769401         1.0013634571897 
        1.5045045045045                     0.3      0.0305191619246157     0.00932465408996746    1.64497851310518E-05    1.05592582875688E-09    2.06795535699619E-05        3424.71914974895       -3399.46358603429         391.03024755954        492.430194029955      0.0406346504257245         8635.5669378685      0.0398809446063942        4547.28621741028        12051980.5540023       0.988242004212961 
       1.50525525525526                     0.3      0.0305226658350888     0.00932561459757083    1.65189668366038E-05    1.05594186623904E-09    2.07658189458088E-05        3424.68879630748       -3399.29659855748        391.389510696882        493.387427948305      0.0406299145315577        8634.56044039447      0.0398855645452457        4551.83613441614        12051730.5310646       0.975120551236219 
       1.50600600600601                     0.3      0.0305261697455619      0.0093265751051742    1.65881485421557E-05     1.0559579037212E-09    2.08520843216557E-05          3424.658442866       -3399.12961108066        391.748773834225        494.344661866656      0.0406251786373909        8633.55394292044      0.0398901844840972        4556.38605142199        12051480.5081268       0.961999098259473 
       1.50675675675676                     0.3      0.0305296736560349     0.00932753561277756    1.66573302477077E-05    1.05597394120335E-09    2.09383496975026E-05        3424.62808942453       -3398.96262360385        392.108036971567        495.301895785006      0.0406204427432241        8632.54744544642      0.0398948044229487        4560.93596842784         12051230.485189       0.948877645282732 
       1.50750750750751                     0.3       0.030533177566508     0.00932849612038093    1.67265119532596E-05    1.05598997868551E-09    2.10246150733495E-05        3424.59773598305       -3398.79563612703         392.46730010891        496.259129703356      0.0406157068490573        8631.54094797239      0.0398994243618002         4565.4858854337        12050980.4622512        0.93575619230599 
       1.50825825825826                     0.3      0.0305366814769811     0.00932945662798429    1.67956936588116E-05    1.05600601616767E-09    2.11108804491964E-05        3424.56738254157       -3398.62864865021        392.826563246252        497.216363621706      0.0406109709548905        8630.53445049836      0.0399040443006517        4570.03580243955        12050730.4393135       0.922634739329248 
       1.50900900900901                     0.3      0.0305401853874541     0.00933041713558766    1.68648753643635E-05    1.05602205364983E-09    2.11971458250432E-05         3424.5370291001        -3398.4616611734        393.185826383595        498.173597540056      0.0406062350607237        8629.52795302434      0.0399086642395032         4574.5857194454        12050480.4163757       0.909513286352506 
       1.50975975975976                     0.3      0.0305436892979272     0.00933137764319103    1.69340570699155E-05    1.05603809113199E-09    2.12834112008901E-05        3424.50667565862       -3398.29467369658        393.545089520937        499.130831458407      0.0406014991665569        8628.52145555031      0.0399132841783547        4579.13563645125        12050230.3934379        0.89639183337576 
       1.51051051051051                     0.3      0.0305471932084003     0.00933233815079439    1.70032387754674E-05    1.05605412861415E-09     2.1369676576737E-05        3424.47632221715       -3398.12768621977         393.90435265828        500.088065376757      0.0405967632723901        8627.51495807628      0.0399179041172062        4583.68555345711        12049980.3705001       0.883270380399018 
       1.51126126126126                     0.3      0.0305506971188733     0.00933329865839776    1.70724204810194E-05     1.0560701660963E-09    2.14559419525839E-05        3424.44596877567       -3397.96069874295        394.263615795622        501.045299295107      0.0405920273782233        8626.50846060226      0.0399225240560577        4588.23547046296        12049730.3475624       0.870148927422276 
       1.51201201201201                     0.3      0.0305542010293464     0.00933425916600112    1.71416021865713E-05    1.05608620357846E-09    2.15422073284308E-05        3424.41561533419       -3397.79371126614        394.622878932965        502.002533213457      0.0405872914840565        8625.50196312823      0.0399271439949092        4592.78538746881        12049480.3246246       0.857027474445535 
       1.51276276276276                     0.3      0.0305666775087191      0.0093372722157394    1.76401210419276E-05    1.11953406217769E-09    2.21587564706493E-05        3424.30582352238       -3397.12848707047        396.194090860671        503.618468707551      0.0405739651284124        8622.66984785569      0.0399437486911552        4615.53200088962        12048840.7213923       0.847101180937804 
       1.51351351351351                     0.3      0.0305874325687814     0.00934217905262747    1.85347697322773E-05    1.24150757327145E-09    2.32645742935963E-05        3424.12273754408       -3396.00356254531        398.883512741944          505.8421581466       0.040552712745195        8618.15331818383      0.0399714111772321        4655.06787736761        12047841.6701647       0.840122915556251 
       1.51426426426426                     0.3      0.0306081876288436     0.00934708588951553    1.94294184226267E-05    1.36348108436517E-09    2.43703921165431E-05        3423.93965156579       -3394.87863802014        401.572934623216        508.065847585648      0.0405314603619777        8613.63678851198       0.039999073663309        4694.60375384558        12046842.6189371         0.8331446501747 
       1.51501501501502                     0.3      0.0306289426889059     0.00935199272640358    2.03240671129761E-05    1.48545459545889E-09    2.54762099394898E-05        3423.75656558749       -3393.75371349498        404.262356504488        510.289537024697      0.0405102079787605        8609.12025884013      0.0400267361493858        4734.13963032356        12045843.5677096       0.826166384793149 
       1.51576576576577                     0.3      0.0306562509833048      0.0093581580388488    2.17089250891423E-05    1.63551432023743E-09    2.71406318987476E-05        3423.53255162712       -3392.33583557558        407.531548677258        512.954599507937      0.0404847467246792        8603.70929796401       0.040063259427406        4785.97174218464        12044666.3187393       0.817872443146571 
       1.51651651651652                     0.3       0.030685021585836     0.00936460417125971    2.32031698182243E-05    1.79184128597931E-09    2.89297024405687E-05        3423.29940487553       -3390.85258716754        410.930112511191        515.718151280397      0.0404583462906793        8598.09875105806       0.040101759928802        4840.54767245261        12043449.3061966       0.809284917598823 
       1.51726726726727                     0.3      0.0307137921883673     0.00937105030367062    2.46974145473067E-05    1.94816825172125E-09    3.07187729823903E-05        3423.06625812393        -3389.3693387595        414.328676345126        518.481703052858      0.0404319458566793        8592.48820415211       0.040140260430198        4895.12360272058        12042232.2936539       0.800697392051073 
       1.51801801801802                     0.3      0.0307398485087744      0.0093769149239959    2.60337488798235E-05    2.08649600963204E-09    3.23190189301899E-05        3422.85452687379       -3388.02635850074        417.404021294519        521.063789095142      0.0404077886326801        8587.35437846182      0.0401751183530647         4944.2769727189        12041113.4548987       0.791181523980626 
       1.51876876876877                     0.3      0.0307450489189706     0.00937831134120523    2.61567365882298E-05    2.08652205636001E-09     3.2468380777332E-05        3422.80734733749       -3387.76116595642        417.995827788332        522.251534828687      0.0404008677106652        8585.88356730538      0.0401819875528471        4951.76465546464        12040748.9606083       0.774532488680934 
       1.51951951951952                     0.3      0.0307502493291667     0.00937970775841457    2.62797242966361E-05    2.08654810308798E-09    3.26177426244741E-05         3422.7601678012       -3387.49597341209        418.587634282144        523.439280562231      0.0403939467886503        8584.41275614895      0.0401888567526296        4959.25233821039         12040384.466318       0.757883453381243 
       1.52027027027027                     0.3      0.0307554497393629      0.0093811041756239    2.64027120050424E-05    2.08657414981595E-09    3.27671044716162E-05         3422.7129882649       -3387.23078086777        419.179440775956        524.627026295775      0.0403870258666355        8582.94194499251      0.0401957259524121        4966.74002095613        12040019.9720277       0.741234418081552 
       1.52102102102102                     0.3       0.030760650149559     0.00938250059283324    2.65256997134487E-05    2.08660019654393E-09    3.29164663187584E-05        3422.66580872861       -3386.96558832345        419.771247269769         525.81477202932      0.0403801049446206        8581.47113383608      0.0402025951521946        4974.22770370188        12039655.4777374       0.724585382781856 
       1.52177177177177                     0.3      0.0307658505597552     0.00938389701004257     2.6648687421855E-05     2.0866262432719E-09    3.30658281659005E-05        3422.61862919231       -3386.70039577912        420.363053763581        527.002517762864      0.0403731840226057        8580.00032267964       0.040209464351977        4981.71538644762        12039290.9834471       0.707936347482165 
       1.52252252252252                     0.3      0.0307710509699513     0.00938529342725191    2.67716751302613E-05    2.08665228999987E-09    3.32151900130426E-05        3422.57144965601        -3386.4352032348        420.954860257394        528.190263496409      0.0403662631005908        8578.52951152321      0.0402163335517595        4989.20306919336        12038926.4891568       0.691287312182474 
       1.52327327327327                     0.3      0.0307762513801475     0.00938668984446124    2.68946628386676E-05    2.08667833672784E-09    3.33645518601846E-05        3422.52427011972       -3386.17001069048        421.546666751206        529.378009229953       0.040359342178576        8577.05870036678       0.040223202751542        4996.69075193911        12038561.9948665       0.674638276882782 
       1.52402402402402                     0.3      0.0307814517903436     0.00938808626167057    2.70176505470739E-05    2.08670438345581E-09    3.35139137073267E-05        3422.47709058342       -3385.90481814615        422.138473245018        530.565754963498      0.0403524212565611        8575.58788921034      0.0402300719513244        5004.17843468485        12038197.5005762       0.657989241583091 
       1.52477477477477                     0.3      0.0307866522005398     0.00938948267887991    2.71406382554803E-05    2.08673043018378E-09    3.36632755544689E-05        3422.42991104713       -3385.63962560183        422.730279738831        531.753500697042      0.0403455003345462         8574.1170780539      0.0402369411511069         5011.6661174306        12037833.0062859       0.641340206283395 
       1.52552552552553                     0.3       0.030791852610736     0.00939087909608924    2.72636259638866E-05    2.08675647691176E-09     3.3812637401611E-05        3422.38273151083       -3385.37443305751        423.322086232643        532.941246430587      0.0403385794125313        8572.64626689747      0.0402438103508894        5019.15380017634        12037468.5119956       0.624691170983704 
       1.52627627627628                     0.3      0.0307970530209321     0.00939227551329858    2.73866136722929E-05    2.08678252363973E-09    3.39619992487531E-05        3422.33555197454       -3385.10924051318        423.913892726455        534.128992164131      0.0403316584905164        8571.17545574103      0.0402506795506718        5026.64148292209        12037104.0177053       0.608042135684013 
       1.52702702702703                     0.3      0.0308022534311283     0.00939367193050791    2.75096013806991E-05     2.0868085703677E-09    3.41113610958952E-05        3422.28837243824       -3384.84404796886        424.505699220268        535.316737897676      0.0403247375685016         8569.7046445846      0.0402575487504543        5034.12916566783         12036739.523415       0.591393100384321 
       1.52777777777778                     0.3      0.0308074538413244     0.00939506834771724    2.76325890891054E-05    2.08683461709567E-09    3.42607229430373E-05        3422.24119290194       -3384.57885542454         425.09750571408         536.50448363122      0.0403178166464867        8568.23383342816      0.0402644179502368        5041.61684841358        12036375.0291247        0.57474406508463 
       1.52852852852853                     0.3      0.0308126542515206     0.00939646476492658    2.77555767975118E-05    2.08686066382364E-09    3.44100847901794E-05        3422.19401336565       -3384.31366288021        425.689312207892        537.692229364765      0.0403108957244718        8566.76302227173      0.0402712871500192        5049.10453115932        12036010.5348344       0.558095029784934 
       1.52927927927928                     0.3      0.0308178546617167     0.00939786118213591    2.78785645059181E-05    2.08688671055161E-09    3.45594466373215E-05        3422.14683382935       -3384.04847033589        426.281118701705        538.879975098309      0.0403039748024569        8565.29221111529      0.0402781563498017        5056.59221390507        12035646.0405441       0.541445994485243 
       1.53003003003003                     0.3      0.0308230550719129     0.00939925759934525    2.80015522143244E-05    2.08691275727959E-09    3.47088084844636E-05        3422.09965429306       -3383.78327779157        426.872925195517        540.067720831854      0.0402970538804421        8563.82139995886      0.0402850255495842        5064.07989665081        12035281.5462538       0.524796959185552 
       1.53078078078078                     0.3       0.030828255482109     0.00940065401655458    2.81245399227307E-05    2.08693880400756E-09    3.48581703316057E-05        3422.05247475676       -3383.51808524724        427.464731689329        541.255466565398      0.0402901329584272        8562.35058880242      0.0402918947493667        5071.56757939655        12034917.0519635        0.50814792388586 
       1.53153153153153                     0.3      0.0308334558923052     0.00940205043376392     2.8247527631137E-05    2.08696485073553E-09    3.50075321787478E-05        3422.00529522047       -3383.25289270292        428.056538183142        542.443212298942      0.0402832120364123        8560.87977764599      0.0402987639491491         5079.0552621423        12034552.5576732       0.491498888586169 
       1.53228228228228                     0.3      0.0308386563025014     0.00940344685097325    2.83705153395433E-05     2.0869908974635E-09    3.51568940258899E-05        3421.95811568417        -3382.9877001586        428.648344676954        543.630958032487      0.0402762911143974        8559.40896648955      0.0403056331489316        5086.54294488805        12034188.0633829       0.474849853286473 
       1.53303303303303                     0.3      0.0308438567126975     0.00940484326818258    2.84935030479496E-05    2.08701694419147E-09     3.5306255873032E-05        3421.91093614787       -3382.72250761427        429.240151170767        544.818703766031      0.0402693701923825        8557.93815533312      0.0403125023487141        5094.03062763379        12033823.5690926       0.458200817986782 
       1.53378378378378                     0.3      0.0308490571228937     0.00940623968539192    2.86164907563559E-05    2.08704299091945E-09    3.54556177201741E-05        3421.86375661158       -3382.45731506995        429.831957664579        546.006449499576      0.0402624492703677        8556.46734417668      0.0403193715484965        5101.51831037953        12033459.0748022       0.441551782687091 
       1.53453453453453                     0.3      0.0308542575330898     0.00940763610260125    2.87394784647622E-05    2.08706903764742E-09    3.56049795673162E-05        3421.81657707528       -3382.19212252563        430.423764158391         547.19419523312      0.0402555283483528        8554.99653302025       0.040326240748279        5109.00599312528        12033094.5805119         0.4249027473874 
       1.53528528528529                     0.3       0.030859457943286     0.00940903251981058    2.88624661731685E-05    2.08709508437539E-09    3.57543414144583E-05        3421.76939753899        -3381.9269299813        431.015570652204        548.381940966665      0.0402486074263379        8553.52572186382      0.0403331099480615        5116.49367587102        12032730.0862216       0.408253712087708 
       1.53603603603604                     0.3      0.0308646583534821     0.00941042893701992    2.89854538815748E-05    2.08712113110336E-09    3.59037032616004E-05        3421.72221800269       -3381.66173743698        431.607377146016        549.569686700209       0.040241686504323        8552.05491070738       0.040339979147844        5123.98135861677        12032365.5919313       0.391604676788012 
       1.53678678678679                     0.3      0.0308698587636783     0.00941182535422925    2.91084415899811E-05    2.08714717783133E-09    3.60530651087425E-05         3421.6750384664       -3381.39654489266        432.199183639828        550.757432433754      0.0402347655823082        8550.58409955094      0.0403468483476264        5131.46904136251         12032001.097641       0.374955641488321 
       1.53753753753754                     0.3      0.0308750591738745     0.00941322177143859    2.92314292983874E-05     2.0871732245593E-09    3.62024269558846E-05         3421.6278589301       -3381.13135234833        432.790990133641        551.945178167298      0.0402278446602933        8549.11328839451      0.0403537175474089        5138.95672410826        12031636.6033507        0.35830660618863 
       1.53828828828829                     0.3      0.0309011034346806     0.00941908380809592    3.05670620323634E-05    2.22542101168777E-09    3.78018339528456E-05        3421.41622282939       -3379.78899530331        435.864899016108        554.526457954299      0.0402036974029138        8543.98158078458      0.0403885592862381        5188.08600158033        12030518.2007833       0.348786613476782 
       1.53903903903904                     0.3      0.0309298740372118     0.00942552994050682    3.20613067614454E-05    2.38174797742966E-09    3.95909044946666E-05         3421.1830760778       -3378.30574689527        439.263462850042        557.290009726759      0.0401772969689138        8538.37103387863       0.040427059787634        5242.66193184829        12029301.1882406       0.340199087929034 
       1.53978978978979                     0.3      0.0309586446397431     0.00943197607291773    3.35555514905278E-05    2.53807494317159E-09    4.13799750364882E-05         3420.9499293262       -3376.82249848723        442.662026683977         560.05356149922      0.0401508965349138        8532.76048697268        0.04046556028903        5297.23786211627        12028084.1756978       0.331611562381284 
       1.54054054054054                     0.3      0.0309892116771039     0.00943873193588642    3.51993699972981E-05    2.70339183179841E-09    4.33514237120092E-05        3420.70859916788       -3375.27257632164        446.155824749922        562.985410747229      0.0401236183030022        8526.96339394618      0.0405064988230522        5354.77830430664        12026834.5329226       0.199624974996995 
       1.54129129129129                     0.3      0.0310278570090608     0.00944688061013327    3.75157990658925E-05    2.90913503829892E-09    4.61429991561938E-05        3420.43046947237       -3373.42283239443        450.077876693575        566.674068182693      0.0400923927471976        8520.32743134719      0.0405584008195195        5425.64970637837        12025438.1569475       0.201604859055017 
       1.54204204204204                     0.3      0.0310665023410176     0.00945502928438013     3.9832228134487E-05    3.11487824479942E-09    4.89345746003785E-05        3420.15233977685       -3371.57308846721        453.999928637228        570.362725618157       0.040061167191393         8513.6914687482      0.0406103028159867         5496.5211084501        12024041.7809724        0.20358474311304 
       1.54279279279279                     0.3      0.0311051476729745     0.00946317795862698    4.21486572030814E-05    3.32062145129993E-09    5.17261500445631E-05        3419.87421008134       -3369.72334453999        457.921980580881         574.05138305362      0.0400299416355884        8507.05550614921      0.0406622048124539        5567.39251052183        12022645.4049973       0.205564627171062 
       1.54354354354354                     0.3      0.0311288980903438     0.00946837197777266      4.345521433847E-05    3.42778674180818E-09    5.33013035913296E-05        3419.69565536284       -3368.56484996404        460.411371666123        576.714687212227      0.0400089633594971         8502.5972712603      0.0406940309055984        5609.98593078355        12021674.4166641       0.208477260078457 
       1.54429429429429                     0.3      0.0311364707008606       0.009470356858708    4.36649197272391E-05    3.42788364495077E-09    5.35552653721524E-05        3419.62525196914       -3368.15714173371          461.3447074604        578.264324879426      0.0399991149566919        8500.50433078539      0.0407040519669358        5621.86579943609        12021165.4544181       0.212402979072264 
       1.54504504504505                     0.3      0.0311440433113775     0.00947234173964336    4.38746251160082E-05    3.42798054809336E-09    5.38092271529752E-05        3419.55484857544       -3367.74943350338        462.278043254677        579.813962546625      0.0399892665538867        8498.41139031048      0.0407140730282732        5633.74566808862        12020656.4921721       0.216328698066072 
        1.5457957957958                     0.3      0.0311516159218943      0.0094743266205787    4.40843305047774E-05    3.42807745123594E-09     5.4063188933798E-05        3419.48444518175       -3367.34172527305        463.211379048953        581.363600213824      0.0399794181510814        8496.31844983557      0.0407240940896106        5645.62553674115        12020147.5299261       0.220254417059879 
       1.54654654654655                     0.3      0.0311591885324112     0.00947631150151405    4.42940358935465E-05    3.42817435437853E-09    5.43171507146208E-05        3419.41404178805       -3366.93401704273         464.14471484323        582.913237881023      0.0399695697482762        8494.22550936065      0.0407341151509479        5657.50540539369        12019638.5676801       0.224180136053686 
        1.5472972972973                     0.3       0.031166761142928      0.0094782963824494    4.45037412823156E-05    3.42827125752112E-09    5.45711124954437E-05        3419.34363839435        -3366.5263088124        465.078050637507        584.462875548223       0.039959721345471        8492.13256888575      0.0407441362122854        5669.38527404623        12019129.6054342       0.228105855047495 
       1.54804804804805                     0.3      0.0311743337534449     0.00948028126338475    4.47134466710848E-05     3.4283681606637E-09    5.48250742762665E-05        3419.27323500065       -3366.11860058207        466.011386431783        586.012513215422      0.0399498729426657        8490.03962841083      0.0407541572736227        5681.26514269876        12018620.6431882       0.232031574041302 
        1.5487987987988                     0.3      0.0311819063639617      0.0094822661443201    4.49231520598539E-05    3.42846506380629E-09    5.50790360570892E-05        3419.20283160696       -3365.71089235174         466.94472222606        587.562150882621      0.0399400245398605        8487.94668793592      0.0407641783349601        5693.14501135129        12018111.6809422        0.23595729303511 
       1.54954954954955                     0.3      0.0311894789744785     0.00948425102525545     4.5132857448623E-05    3.42856196694888E-09     5.5332997837912E-05        3419.13242821326       -3365.30318412142        467.878058020337         589.11178854982      0.0399301761370553        8485.85374746101      0.0407741993962975        5705.02488000383        12017602.7186962       0.239883012028917 
        1.5503003003003                     0.3      0.0311970515849954      0.0094862359061908    4.53425628373921E-05    3.42865887009146E-09    5.55869596187348E-05        3419.06202481956       -3364.89547589109        468.811393814613        590.661426217019      0.0399203277342501         8483.7608069861      0.0407842204576349        5716.90474865636        12017093.7564502       0.243808731022724 
       1.55105105105105                     0.3      0.0312046241955122     0.00948822078712615    4.55522682261613E-05    3.42875577323405E-09    5.58409213995577E-05        3418.99162142586       -3364.48776766076         469.74472960889        592.211063884218      0.0399104793314448        8481.66786651119      0.0407942415189723         5728.7846173089        12016584.7942042       0.247734450016533 
        1.5518018018018                     0.3      0.0312121968060291      0.0094902056680615    4.57619736149304E-05    3.42885267637664E-09    5.60948831803805E-05        3418.92121803217       -3364.08005943043        470.678065403167        593.760701551418      0.0399006309286396        8479.57492603628      0.0408042625803097        5740.66448596143        12016075.8319583        0.25166016901034 
       1.55255255255255                     0.3      0.0312197694165459     0.00949219054899685    4.59716790036995E-05    3.42894957951922E-09    5.63488449612032E-05        3418.85081463847       -3363.67235120011        471.611401197444        595.310339218617      0.0398907825258344        8477.48198556136      0.0408142836416471        5752.54435461397        12015566.8697123       0.255585888004147 
        1.5533033033033                     0.3      0.0312273420270627      0.0094941754299322    4.61813843924686E-05    3.42904648266181E-09     5.6602806742026E-05        3418.78041124477       -3363.26464296978         472.54473699172        596.859976885816      0.0398809341230292        8475.38904508645      0.0408243047029845         5764.4242232665        12015057.9074663       0.259511606997955 