VARIABLES = "X"
 "Y"
 "rho_N2"
 "rho_O2"
 "rho_NO"
 "rho_N"
 "rho_O"
 "rho_NOp"
 "rho_N2p"
 "rho_O2p"
 "rho_Np"
 "rho_Op"
 "rho_e"
 "U"
 "V"
 "T"
 "Tv"
 "rho"
 "P"
 "H"
 "tau"
ZONE
DT=(DOUBLE,DOUBLE,DOUBLE,DOUBLE,DOUBLE,DOUBLE,DOUBLE,DOUBLE,DOUBLE,DOUBLE,DOUBLE,DOUBLE,DOUBLE,DOUBLE,DOUBLE,DOUBLE,DOUBLE,DOUBLE,DOUBLE,DOUBLE,DOUBLE)
                   1.25                     0.3      0.0299042326693572     0.00916323807642925    3.64105017344177E-08    1.53130565095869E-17    4.49566804341455E-08                       0                       0                       0                       0                       0                       0        3429.97403808834       -3429.86926719662        323.092953990073        325.980038012635      0.0390675537164859        3638.08616724884         12090483.751338        5.60418930175286 
         1.251001001001                     0.3      0.0299042639757426     0.00916324723207028    3.66130981938603E-08     1.5313299979005E-17    4.52054534825672E-08                       0                       0                       0                       0                       0                       0        3429.97387356561       -3429.86843490514        323.094143150721        326.002731262463      0.0390675941785124         3638.1033647135        12090481.7693229        5.59646605190149 
         1.252002002002                     0.3      0.0299042952821281     0.00916325638771131    3.68156946533028E-08    1.53135434484231E-17    4.54542265309889E-08                       0                       0                       0                       0                       0                       0        3429.97370904287       -3429.86760261365        323.095332311368        326.025424512291      0.0390676346405389        3638.12056217816        12090479.7873079        5.58874280205012 
         1.253003003003                     0.3      0.0299043265885136     0.00916326554335234    3.70182911127454E-08    1.53137869178411E-17    4.57029995794106E-08                       0                       0                       0                       0                       0                       0        3429.97354452014       -3429.86677032217        323.096521472015        326.048117762119      0.0390676751025654        3638.13775964282        12090477.8052928        5.58101955219874 
         1.254004004004                     0.3       0.029904357894899     0.00916327469899337     3.7220887572188E-08    1.53140303872592E-17    4.59517726278322E-08                       0                       0                       0                       0                       0                       0         3429.9733799974       -3429.86593803069        323.097710632662        326.070811011947      0.0390677155645919        3638.15495710748        12090475.8232777        5.57329630234737 
       1.25500500500501                     0.3      0.0299043892012845      0.0091632838546344    3.74234840316306E-08    1.53142738566773E-17     4.6200545676254E-08                       0                       0                       0                       0                       0                       0        3429.97321547467       -3429.86510573921        323.098899793309        326.093504261776      0.0390677560266184        3638.17215457214        12090473.8412627          5.565573052496 
       1.25600600600601                     0.3      0.0299044205076699     0.00916329301027543    3.76260804910731E-08    1.53145173260954E-17    4.64493187246757E-08                       0                       0                       0                       0                       0                       0        3429.97305095193       -3429.86427344773        323.100088953957        326.116197511604      0.0390677964886449         3638.1893520368        12090471.8592476        5.55784980264463 
       1.25700700700701                     0.3      0.0299044518140554     0.00916330216591646    3.78286769505157E-08    1.53147607955134E-17    4.66980917730973E-08                       0                       0                       0                       0                       0                       0         3429.9728864292       -3429.86344115625        323.101278114604        326.138890761432      0.0390678369506714        3638.20654950146        12090469.8772326        5.55012655279326 
       1.25800800800801                     0.3      0.0299044831204409     0.00916331132155749    3.80312734099583E-08    1.53150042649315E-17    4.69468648215191E-08                       0                       0                       0                       0                       0                       0        3429.97272190647       -3429.86260886477        323.102467275251         326.16158401126      0.0390678774126979        3638.22374696612        12090467.8952175        5.54240330294189 
       1.25900900900901                     0.3      0.0299045144268263     0.00916332047719852    3.82338698694008E-08    1.53152477343496E-17    4.71956378699407E-08                       0                       0                       0                       0                       0                       0        3429.97255738373       -3429.86177657329        323.103656435898        326.184277261088      0.0390679178747243        3638.24094443078        12090465.9132024        5.53468005309052 
       1.26001001001001                     0.3      0.0299045985567619     0.00916334485798977    3.90350181172735E-08    1.57021608081676E-17    4.81739154696285E-08                       0                       0                       0                       0                       0                       0        3429.97204734863       -3429.85908547271        323.108140515557        326.241169317271      0.0390680277426852        3638.30182904861        12090460.2393126          5.525800518758 
       1.26101101101101                     0.3      0.0299049531532623     0.00916344719442902    4.29008647003799E-08    1.80688953707797E-17    5.28873943117597E-08                       0                       0                       0                       0                       0                       0        3429.96976822486       -3429.84687691802        323.129495203578        326.473165728543       0.039068492982154        3638.58640015137        12090435.6623259        5.51100058924344 
       1.26201201201201                     0.3      0.0299053077497627     0.00916354953086829    4.67667112834854E-08    2.04356299333913E-17    5.76008731538898E-08                       0                       0                       0                       0                       0                       0         3429.9674891011       -3429.83466836334        323.150849891599        326.705162139815      0.0390689582216228        3638.87097125412        12090411.0853391        5.49620065972888 
       1.26301301301301                     0.3      0.0299057543471092      0.0091636778749653     5.2005014804039E-08    3.66785161146984E-17    6.39995922197033E-08                       0                       0                       0                       0                       0                       0        3429.96451977964       -3429.81874321481         323.17931864668        326.981619100954      0.0390695446162531        3639.24743615554        12090379.9962173        5.48039398960306 
       1.26401401401401                     0.3      0.0299063469337762     0.00916384748868581    5.94211684641422E-08    7.49404383142918E-17    7.30724940275616E-08                       0                       0                       0                       0                       0                       0        3429.96045523463       -3429.79692047911        323.219076187233        327.328627211705      0.0390703232630249        3639.76972051168        12090338.5734714        5.46298979745602 
       1.26501501501502                     0.3      0.0299069395204432     0.00916401710240632     6.6837322124247E-08    1.13202360513894E-16    8.21453958354219E-08                       0                       0                       0                       0                       0                       0        3429.95639068962       -3429.77509774341        323.258833727786        327.675635322456      0.0390711019097967        3640.29200486782        12090297.1507255        5.44558560530898 
       1.26601601601602                     0.3      0.0299072063446356     0.00916409379707359    6.99883268609879E-08    1.28139794485903E-16    8.60008306183356E-08                       0                       0                       0                       0                       0                       0        3429.95458584668       -3429.76556471896        323.275817247497        327.839797840877       0.039071452478479        3640.51672835165        12090278.5652484        5.43084579855922 
       1.26701701701702                     0.3      0.0299072645991684     0.00916411100024995    7.04085669200938E-08    1.28143708029841E-16    8.65157783714992E-08                       0                       0                       0                       0                       0                       0        3429.95422777962         -3429.763900191        323.278219683922        327.886893336794      0.0390715289698554        3640.55093827214        12090274.6013493        5.41781186648376 
       1.26801801801802                     0.3      0.0299073228537012      0.0091641282034263    7.08288069791999E-08     1.2814762157378E-16    8.70307261246629E-08                       0                       0                       0                       0                       0                       0        3429.95386971256       -3429.76223566304        323.280622120347        327.933988832711      0.0390716054612318        3640.58514819263        12090270.6374502         5.4047779344083 
       1.26901901901902                     0.3       0.029907381108234     0.00916414540660266    7.12490470383059E-08    1.28151535117718E-16    8.75456738778266E-08                       0                       0                       0                       0                       0                       0         3429.9535116455       -3429.76057113509        323.283024556772        327.981084328628      0.0390716819526082        3640.61935811312         12090266.673551        5.39174400233285 
       1.27002002002002                     0.3      0.0299074393627668     0.00916416260977901     7.1669287097412E-08    1.28155448661656E-16    8.80606216309903E-08                       0                       0                       0                       0                       0                       0        3429.95315357844       -3429.75890660713        323.285426993196        328.028179824545      0.0390717584439846        3640.65356803361        12090262.7096519        5.37871007025739 
       1.27102102102102                     0.3      0.0299074976172997     0.00916417981295536     7.2089527156518E-08    1.28159362205594E-16     8.8575569384154E-08                       0                       0                       0                       0                       0                       0        3429.95279551138       -3429.75724207918        323.287829429621        328.075275320462       0.039071834935361         3640.6877779541        12090258.7457528        5.36567613818193 
       1.27202202202202                     0.3      0.0299075558718325     0.00916419701613172     7.2509767215624E-08    1.28163275749533E-16    8.90905171373176E-08                       0                       0                       0                       0                       0                       0        3429.95243744432       -3429.75557755122        323.290231866046        328.122370816379      0.0390719114267374        3640.72198787459        12090254.7818536        5.35264220610647 
       1.27302302302302                     0.3      0.0299076141263653     0.00916421421930807      7.293000727473E-08    1.28167189293471E-16    8.96054648904813E-08                       0                       0                       0                       0                       0                       0        3429.95207937726       -3429.75391302326        323.292634302471        328.169466312296      0.0390719879181138        3640.75619779508        12090250.8179545        5.33960827403101 
       1.27402402402402                     0.3      0.0299076723808981     0.00916423142248442     7.3350247333836E-08    1.28171102837409E-16    9.01204126436449E-08                       0                       0                       0                       0                       0                       0         3429.9517213102       -3429.75224849531        323.295036738896        328.216561808213      0.0390720644094903        3640.79040771557        12090246.8540554        5.32657434195555 
       1.27502502502503                     0.3      0.0299077306354309     0.00916424862566078    7.37704873929421E-08    1.28175016381347E-16    9.06353603968086E-08                       0                       0                       0                       0                       0                       0        3429.95136324314       -3429.75058396735         323.29743917532         328.26365730413      0.0390721409008667        3640.82461763606        12090242.8901563        5.31354040988009 
       1.27602602602603                     0.3      0.0299077888899637     0.00916426582883713    7.41907274520482E-08    1.28178929925286E-16    9.11503081499723E-08                       0                       0                       0                       0                       0                       0        3429.95100517608        -3429.7489194394        323.299841611745        328.310752800047      0.0390722173922431        3640.85882755655        12090238.9262571        5.30050647780463 
       1.27702702702703                     0.3      0.0299078471444965     0.00916428303201349    7.46109675111541E-08    1.28182843469224E-16    9.16652559031359E-08                       0                       0                       0                       0                       0                       0        3429.95064710902       -3429.74725491144         323.30224404817        328.357848295964      0.0390722938836195        3640.89303747704         12090234.962358        5.28747254572917 
       1.27802802802803                     0.3      0.0299079053990293     0.00916430023518984    7.50312075702602E-08    1.28186757013162E-16    9.21802036562996E-08                       0                       0                       0                       0                       0                       0        3429.95028904196       -3429.74559038348        323.304646484595        328.404943791881      0.0390723703749959        3640.92724739753        12090230.9984589        5.27443861365371 
       1.27902902902903                     0.3      0.0299079636535621     0.00916431743836619    7.54514476293662E-08      1.281906705571E-16    9.26951514094632E-08                       0                       0                       0                       0                       0                       0         3429.9499309749       -3429.74392585553         323.30704892102        328.452039287798      0.0390724468663723        3640.96145731802        12090227.0345597        5.26140468157825 
       1.28003003003003                     0.3      0.0299080219080949     0.00916433464154255    7.58716876884722E-08    1.28194584101039E-16     9.3210099162627E-08                       0                       0                       0                       0                       0                       0        3429.94957290784       -3429.74226132757        323.309451357445        328.499134783715      0.0390725233577487        3640.99566723851        12090223.0706606        5.24837074950279 
       1.28103103103103                     0.3      0.0299080801626277      0.0091643518447189    7.62919277475783E-08    1.28198497644977E-16    9.37250469157907E-08                       0                       0                       0                       0                       0                       0        3429.94921484078       -3429.74059679962        323.311853793869        328.546230279632      0.0390725998491251          3641.029877159        12090219.1067615        5.23533681742733 
       1.28203203203203                     0.3      0.0299081384171605     0.00916436904789526    7.67121678066843E-08    1.28202411188915E-16    9.42399946689543E-08                       0                       0                       0                       0                       0                       0        3429.94885677372       -3429.73893227166        323.314256230294        328.593325775549      0.0390726763405015        3641.06408707949        12090215.1428623        5.22230288535188 
       1.28303303303303                     0.3      0.0299081966716933     0.00916438625107161    7.71324078657903E-08    1.28206324732853E-16     9.4754942422118E-08                       0                       0                       0                       0                       0                       0        3429.94849870666        -3429.7372677437        323.316658666719        328.640421271466      0.0390727528318779        3641.09829699998        12090211.1789632        5.20926895327641 
       1.28403403403403                     0.3      0.0299082549262261     0.00916440345424796    7.75526479248963E-08    1.28210238276792E-16    9.52698901752816E-08                       0                       0                       0                       0                       0                       0         3429.9481406396       -3429.73560321575        323.319061103144        328.687516767383      0.0390728293232543        3641.13250692047        12090207.2150641        5.19623502120096 
       1.28503503503504                     0.3      0.0299083131807589     0.00916442065742432    7.79728879840023E-08     1.2821415182073E-16    9.57848379284453E-08                       0                       0                       0                       0                       0                       0        3429.94778257254       -3429.73393868779        323.321463539569          328.7346122633      0.0390729058146307        3641.16671684096        12090203.2511649         5.1832010891255 
       1.28603603603604                     0.3       0.029908871463342     0.00916458048639905     8.4939904503181E-08    1.64019912665984E-16    1.04308319712629E-07                       0                       0                       0                       0                       0                       0        3429.94395598314       -3429.71341010755        323.358822885172        329.062366006139      0.0390736393830775        3641.65766685407        12090164.2332742        5.16607746735505 
       1.28703703703704                     0.3       0.029909464050009     0.00916475010011956    9.23560581632841E-08    2.02281834865577E-16    1.13381221520487E-07                       0                       0                       0                       0                       0                       0        3429.93989143813       -3429.69158737185        323.398580425725         329.40937411689      0.0390744180298493        3642.17995121021        12090122.8105283        5.14867327520802 
       1.28803803803804                     0.3      0.0299101172640017     0.00916493665549134    1.00758331707984E-07    3.57613515294788E-16    1.23721218816344E-07                       0                       0                       0                       0                       0                       0         3429.9353517186       -3429.66711658113        323.443675570948        329.778679365368      0.0390752765627155        3642.77036277461        12090077.1046012        5.13078534709638 
       1.28903903903904                     0.3      0.0299110914214225     0.00916521289503737    1.14380837106665E-07    1.13267844580334E-15    1.40768851088235E-07                       0                       0                       0                       0                       0                       0        3429.92829656332       -3429.62862775737        323.517026442839        330.266019175803      0.0390765579893299        3643.72141996457        12090008.7247588        5.11033666148382 
       1.29004004004004                     0.3      0.0299120655788433      0.0091654891345834    1.28003342505349E-07    1.90774337631206E-15     1.5781648336013E-07                       0                       0                       0                       0                       0                       0        3429.92124140805       -3429.59013893361         323.59037731473        330.753358986239      0.0390778394159444        3644.67247715454        12089940.3449164        5.08988797587125 
       1.29104104104104                     0.3      0.0299127073624684     0.00916567153562517    1.36732359253888E-07     2.3867001863547E-15    1.68737268873715E-07                       0                       0                       0                       0                       0                       0        3429.91665634164       -3429.56519122575        323.637474248084        331.088963742905      0.0390786836489323        3645.28500829576        12089895.3655422        5.07032027810033 
       1.29204204204204                     0.3       0.029912811619131     0.00916570217763295    1.37547448598803E-07    2.38678019979479E-15    1.69749495499164E-07                       0                       0                       0                       0                       0                       0        3429.91606599257       -3429.56214270186        323.642112359422        331.179177064961      0.0390788208365237        3645.35006282766        12089888.2302543        5.05217734583327 
       1.29304304304304                     0.3      0.0299129158757936     0.00916573281964073    1.38362537943719E-07    2.38686021323489E-15    1.70761722124612E-07                       0                       0                       0                       0                       0                       0         3429.9154756435       -3429.55909417798        323.646750470759        331.269390387017      0.0390789580241152        3645.41511735955        12089881.0949664        5.03403441356621 
       1.29404404404404                     0.3      0.0299130201324562     0.00916576346164851    1.39177627288634E-07    2.38694022667498E-15     1.7177394875006E-07                       0                       0                       0                       0                       0                       0        3429.91488529443        -3429.5560456541        323.651388582097        331.359603709073      0.0390790952117066        3645.48017189144        12089873.9596785        5.01589148129915 
       1.29504504504505                     0.3      0.0299131243891188     0.00916579410365629     1.3999271663355E-07    2.38702024011508E-15    1.72786175375509E-07                       0                       0                       0                       0                       0                       0        3429.91429494536       -3429.55299713021        323.656026693434        331.449817031129      0.0390792323992981        3645.54522642334        12089866.8243906        4.99774854903209 
       1.29604604604605                     0.3      0.0299132286457815     0.00916582474566407    1.40807805978465E-07    2.38710025355517E-15    1.73798402000957E-07                       0                       0                       0                       0                       0                       0        3429.91370459629       -3429.54994860633        323.660664804771        331.540030353185      0.0390793695868895        3645.61028095523        12089859.6891027        4.97960561676502 
       1.29704704704705                     0.3      0.0299133329024441     0.00916585538767185    1.41622895323381E-07    2.38718026699527E-15    1.74810628626406E-07                       0                       0                       0                       0                       0                       0        3429.91311424722       -3429.54690008245        323.665302916109        331.630243675241       0.039079506774481        3645.67533548712        12089852.5538148        4.96146268449796 
       1.29804804804805                     0.3      0.0299134371591067     0.00916588602967963    1.42437984668296E-07    2.38726028043536E-15    1.75822855251854E-07                       0                       0                       0                       0                       0                       0        3429.91252389815       -3429.54385155856        323.669941027446        331.720456997297      0.0390796439620725        3645.74039001902        12089845.4185269         4.9433197522309 
       1.29904904904905                     0.3      0.0299135414157693     0.00916591667168741    1.43253074013212E-07    2.38734029387546E-15    1.76835081877302E-07                       0                       0                       0                       0                       0                       0        3429.91193354908       -3429.54080303468        323.674579138784        331.810670319353      0.0390797811496639        3645.80544455091         12089838.283239        4.92517681996384 
       1.30005005005005                     0.3      0.0299136456724319     0.00916594731369519    1.44068163358127E-07    2.38742030731555E-15    1.77847308502751E-07                       0                       0                       0                       0                       0                       0        3429.91134320001       -3429.53775451079        323.679217250121        331.900883641409      0.0390799183372554         3645.8704990828        12089831.1479511        4.90703388769678 
       1.30105105105105                     0.3      0.0299137499290945     0.00916597795570297    1.44883252703043E-07    2.38750032075565E-15    1.78859535128199E-07                       0                       0                       0                       0                       0                       0        3429.91075285094       -3429.53470598691        323.683855361458        331.991096963465      0.0390800555248468         3645.9355536147        12089824.0126632        4.88889095542972 
       1.30205205205205                     0.3      0.0299138541857571     0.00916600859771074    1.45698342047958E-07    2.38758033419574E-15    1.79871761753648E-07                       0                       0                       0                       0                       0                       0        3429.91016250187       -3429.53165746303        323.688493472796        332.081310285521      0.0390801927124383        3646.00060814659        12089816.8773753        4.87074802316266 
       1.30305305305305                     0.3      0.0299139584424198     0.00916603923971852    1.46513431392874E-07    2.38766034763584E-15    1.80883988379096E-07                       0                       0                       0                       0                       0                       0         3429.9095721528       -3429.52860893914        323.693131584133        332.171523607577      0.0390803299000297        3646.06566267848        12089809.7420874         4.8526050908956 
       1.30405405405405                     0.3      0.0299140626990824      0.0091660698817263    1.47328520737789E-07    2.38774036107593E-15    1.81896215004544E-07                       0                       0                       0                       0                       0                       0        3429.90898180374       -3429.52556041526         323.69776969547        332.261736929633      0.0390804670876212        3646.13071721038        12089802.6067995        4.83446215862854 
       1.30505505505506                     0.3       0.029914166955745     0.00916610052373408    1.48143610082705E-07    2.38782037451603E-15    1.82908441629993E-07                       0                       0                       0                       0                       0                       0        3429.90839145467       -3429.52251189138        323.702407806808        332.351950251689      0.0390806042752126        3646.19577174227        12089795.4715116        4.81631922636148 
       1.30605605605606                     0.3      0.0299142712124076     0.00916613116574186     1.4895869942762E-07    2.38790038795612E-15    1.83920668255441E-07                       0                       0                       0                       0                       0                       0         3429.9078011056       -3429.51946336749        323.707045918145        332.442163573745      0.0390807414628041        3646.26082627416        12089788.3362237        4.79817629409441 
       1.30705705705706                     0.3      0.0299143754690702     0.00916616180774964    1.49773788772536E-07    2.38798040139622E-15     1.8493289488089E-07                       0                       0                       0                       0                       0                       0        3429.90721075653       -3429.51641484361        323.711684029483        332.532376895801      0.0390808786503955        3646.32588080606        12089781.2009358        4.78003336182736 