VARIABLES = "X"
 "Y"
 "rho_N2"
 "rho_O2"
 "rho_NO"
 "rho_N"
 "rho_O"
 "rho_NOp"
 "rho_N2p"
 "rho_O2p"
 "rho_Np"
 "rho_Op"
 "rho_e"
 "U"
 "V"
 "T"
 "Tv"
 "rho"
 "P"
 "H"
 "tau"
ZONE
DT=(DOUBLE,DOUBLE,DOUBLE,DOUBLE,DOUBLE,DOUBLE,DOUBLE,DOUBLE,DOUBLE,DOUBLE,DOUBLE,DOUBLE,DOUBLE,DOUBLE,DOUBLE,DOUBLE,DOUBLE,DOUBLE,DOUBLE,DOUBLE,DOUBLE)
                   1.45                     0.3      0.0301584228924011     0.00923209055293978    5.56706685116534E-06    7.49816026004491E-11    6.93101895678973E-06                       0                       0                       0                       0                       0                       0        3427.87807434647       -3417.94809516356        348.744665432325        416.979267807133      0.0394030125865189        3970.99897615728        12073530.6335462        1.96293009908216 
        1.4504004004004                     0.3      0.0301592237784974     0.00923231594521194    5.57914557500695E-06    7.49826198088632E-11    6.94632803440843E-06                       0                       0                       0                       0                       0                       0        3427.87200052555        -3417.9150665848        348.809311074904        417.334241799295      0.0394040664353108         3971.8310934943        12073473.8683669        1.95458322254254 
        1.4508008008008                     0.3      0.0301600246645938      0.0092325413374841    5.59122429884856E-06    7.49836370172772E-11    6.96163711202713E-06                       0                       0                       0                       0                       0                       0        3427.86592670463       -3417.88203800604        348.873956717483        417.689215791458      0.0394051202841027        3972.66321083132        12073417.1031876        1.94623634600293 
        1.4512012012012                     0.3      0.0301608255506901     0.00923276672975626    5.60330302269018E-06    7.49846542256913E-11    6.97694618964584E-06                       0                       0                       0                       0                       0                       0        3427.85985288371       -3417.84900942727        348.938602360061         418.04418978362      0.0394061741328946        3973.49532816834        12073360.3380083        1.93788946946331 
        1.4516016016016                     0.3      0.0301616264367865     0.00923299212202842    5.61538174653179E-06    7.49856714341053E-11    6.99225526726454E-06                       0                       0                       0                       0                       0                       0        3427.85377906279       -3417.81598084851         349.00324800264        418.399163775783      0.0394072279816864        3974.32744550536         12073303.572829        1.92954259292369 
         1.452002002002                     0.3      0.0301624273228828     0.00923321751430058     5.6274604703734E-06    7.49866886425194E-11    7.00756434488324E-06                       0                       0                       0                       0                       0                       0        3427.84770524187       -3417.78295226975        349.067893645219        418.754137767945      0.0394082818304783        3975.15956284238        12073246.8076497        1.92119571638407 
        1.4524024024024                     0.3      0.0301632282089791     0.00923344290657274    5.63953919421501E-06    7.49877058509335E-11    7.02287342250194E-06                       0                       0                       0                       0                       0                       0        3427.84163142096       -3417.74992369098        349.132539287798        419.109111760107      0.0394093356792702         3975.9916801794        12073190.0424703        1.91284883984446 
        1.4528028028028                     0.3      0.0301640290950755      0.0092336682988449    5.65161791805663E-06    7.49887230593475E-11    7.03818250012065E-06                       0                       0                       0                       0                       0                       0        3427.83555760004       -3417.71689511222        349.197184930376         419.46408575227      0.0394103895280621        3976.82379751642         12073133.277291        1.90450196330484 
        1.4532032032032                     0.3      0.0301648299811718     0.00923389369111707    5.66369664189824E-06    7.49897402677616E-11    7.05349157773935E-06                       0                       0                       0                       0                       0                       0        3427.82948377912       -3417.68386653346        349.261830572955        419.819059744432       0.039411443376854        3977.65591485344        12073076.5121117        1.89615508676522 
        1.4536036036036                     0.3      0.0301656308672681     0.00923411908338923    5.67577536573985E-06    7.49907574761756E-11    7.06880065535805E-06                       0                       0                       0                       0                       0                       0         3427.8234099582       -3417.65083795469        349.326476215534        420.174033736595      0.0394124972256459        3978.48803219046        12073019.7469324        1.88780821022561 
         1.454004004004                     0.3      0.0301664317533645     0.00923434447566139    5.68785408958146E-06    7.49917746845897E-11    7.08410973297675E-06                       0                       0                       0                       0                       0                       0        3427.81733613728       -3417.61780937593        349.391121858113        420.529007728757      0.0394135510744377        3979.32014952747        12072962.9817531        1.87946133368599 
        1.4544044044044                     0.3      0.0301672326394608     0.00923456986793355    5.69993281342308E-06    7.49927918930037E-11    7.09941881059545E-06                       0                       0                       0                       0                       0                       0        3427.81126231636       -3417.58478079717        349.455767500692         420.88398172092      0.0394146049232296        3980.15226686449        12072906.2165738        1.87111445714637 
        1.4548048048048                     0.3      0.0301680335255572     0.00923479526020571    5.71201153726469E-06    7.49938091014178E-11    7.11472788821415E-06                       0                       0                       0                       0                       0                       0        3427.80518849544       -3417.55175221841         349.52041314327        421.238955713082      0.0394156587720215        3980.98438420151        12072849.4513945        1.86276758060675 
       1.45520520520521                     0.3      0.0301688344116535     0.00923502065247787     5.7240902611063E-06    7.49948263098319E-11    7.13003696583285E-06                       0                       0                       0                       0                       0                       0        3427.79911467452       -3417.51872363964        349.585058785849        421.593929705245      0.0394167126208134        3981.81650153853        12072792.6862152        1.85442070406714 
       1.45560560560561                     0.3      0.0301696352977498     0.00923524604475003    5.73616898494791E-06    7.49958435182459E-11    7.14534604345155E-06                       0                       0                       0                       0                       0                       0         3427.7930408536       -3417.48569506088        349.649704428428        421.948903697407      0.0394177664696053        3982.64861887555        12072735.9210359        1.84607382752752 
       1.45600600600601                     0.3      0.0301704361838462     0.00923547143702219    5.74824770878953E-06      7.499686072666E-11    7.16065512107026E-06                       0                       0                       0                       0                       0                       0        3427.78696703269       -3417.45266648212        349.714350071007         422.30387768957      0.0394188203183972        3983.48073621257        12072679.1558566         1.8377269509879 
       1.45640640640641                     0.3      0.0301712370699425     0.00923569682929435    5.76032643263114E-06     7.4997877935074E-11    7.17596419868896E-06                       0                       0                       0                       0                       0                       0        3427.78089321177       -3417.41963790335        349.778995713586        422.658851681732       0.039419874167189        3984.31285354959        12072622.3906773        1.82938007444829 
       1.45680680680681                     0.3      0.0301720379560388     0.00923592222156652    5.77240515647275E-06    7.49988951434881E-11    7.19127327630766E-06                       0                       0                       0                       0                       0                       0        3427.77481939085       -3417.38660932459        349.843641356164        423.013825673895      0.0394209280159809        3985.14497088661         12072565.625498        1.82103319790867 
       1.45720720720721                     0.3      0.0301728388421352     0.00923614761383868    5.78448388031436E-06    7.49999123519021E-11    7.20658235392636E-06                       0                       0                       0                       0                       0                       0        3427.76874556993       -3417.35358074583        349.908286998743        423.368799666057      0.0394219818647728        3985.97708822363        12072508.8603187        1.81268632136906 
       1.45760760760761                     0.3      0.0301736397282315     0.00923637300611084    5.79656260415598E-06    7.50009295603162E-11    7.22189143154507E-06                       0                       0                       0                       0                       0                       0        3427.76267174901       -3417.32055216706        349.972932641322         423.72377365822      0.0394230357135647        3986.80920556064        12072452.0951394        1.80433944482944 
       1.45800800800801                     0.3      0.0301744406143278       0.009236598398383    5.80864132799759E-06    7.50019467687303E-11    7.23720050916377E-06                       0                       0                       0                       0                       0                       0        3427.75659792809        -3417.2875235883        350.037578283901        424.078747650382      0.0394240895623566        3987.64132289766        12072395.3299601        1.79599256828982 
       1.45840840840841                     0.3      0.0301752415004242     0.00923682379065516     5.8207200518392E-06    7.50029639771443E-11    7.25250958678247E-06                       0                       0                       0                       0                       0                       0        3427.75052410717       -3417.25449500954        350.102223926479        424.433721642545      0.0394251434111484        3988.47344023468        12072338.5647808         1.7876456917502 
       1.45880880880881                     0.3      0.0301760423865205     0.00923704918292732    5.83279877568081E-06    7.50039811855584E-11    7.26781866440117E-06                       0                       0                       0                       0                       0                       0        3427.74445028625       -3417.22146643077        350.166869569058        424.788695634707      0.0394261972599403         3989.3055575717        12072281.7996015        1.77929881521059 
       1.45920920920921                     0.3      0.0301768432726168     0.00923727457519948    5.84487749952243E-06    7.50049983939724E-11    7.28312774201987E-06                       0                       0                       0                       0                       0                       0        3427.73837646534       -3417.18843785201        350.231515211637         425.14366962687      0.0394272511087322        3990.13767490872        12072225.0344221        1.77095193867097 
       1.45960960960961                     0.3      0.0301776441587132     0.00923749996747164    5.85695622336404E-06    7.50060156023865E-11    7.29843681963857E-06                       0                       0                       0                       0                       0                       0        3427.73230264442       -3417.15540927325        350.296160854216        425.498643619032      0.0394283049575241        3990.96979224574        12072168.2692428        1.76260506213135 
       1.46001001001001                     0.3      0.0301784450448095      0.0092377253597438    5.86903494720566E-06    7.50070328108005E-11    7.31374589725727E-06                       0                       0                       0                       0                       0                       0         3427.7262288235       -3417.12238069449        350.360806496795        425.853617611195       0.039429358806316        3991.80190958276        12072111.5040635        1.75425818559174 
       1.46041041041041                     0.3      0.0301792459309059     0.00923795075201597    5.88111367104727E-06    7.50080500192146E-11    7.32905497487597E-06                       0                       0                       0                       0                       0                       0        3427.72015500258       -3417.08935211572        350.425452139373        426.208591603357      0.0394304126551079        3992.63402691978        12072054.7388842        1.74591130905212 
       1.46081081081081                     0.3      0.0301800468170022     0.00923817614428813    5.89319239488888E-06    7.50090672276287E-11    7.34436405249468E-06                       0                       0                       0                       0                       0                       0        3427.71408118166       -3417.05632353696        350.490097781952         426.56356559552      0.0394314665038998         3993.4661442568        12071997.9737049         1.7375644325125 
       1.46121121121121                     0.3      0.0301808477030985     0.00923840153656029     5.9052711187305E-06    7.50100844360427E-11    7.35967313011338E-06                       0                       0                       0                       0                       0                       0        3427.70800736074        -3417.0232949582        350.554743424531        426.918539587682      0.0394325203526916        3994.29826159381        12071941.2085256        1.72921755597288 
       1.46161161161161                     0.3      0.0301816485891949     0.00923862692883245    5.91734984257211E-06    7.50111016444568E-11    7.37498220773208E-06                       0                       0                       0                       0                       0                       0        3427.70193353982       -3416.99026637943         350.61938906711        427.273513579844      0.0394335742014835        3995.13037893083        12071884.4433463        1.72087067943327 
       1.46201201201201                     0.3      0.0301840839370323     0.00923925621184713    5.98739634013088E-06    7.82642756498924E-11    7.46470227755616E-06                       0                       0                       0                       0                       0                       0         3427.6802298462       -3416.86201270973        350.914781317058         427.82380290725      0.0394367987935102         3999.0346391163        12071735.7597613         1.7137802668304 
       1.46241241241241                     0.3       0.030189379097485     0.00924059218123546    6.15886887073109E-06    8.72077382691382E-11    7.68461902857236E-06                       0                       0                       0                       0                       0                       0        3427.63117861302       -3416.56714399513        351.613910186898        428.715834868116      0.0394438215282107        4008.31421807069        12071426.2468284        1.70888828526242 
       1.46281281281281                     0.3      0.0301946742579378     0.00924192815062378    6.33034140133141E-06    9.61512008883889E-11    7.90453577958869E-06                       0                       0                       0                       0                       0                       0        3427.58212737984       -3416.27227528053        352.313039056738        429.607866828982      0.0394508442629112        4017.59379702509        12071116.7338954        1.70399630369443 
       1.46321321321321                     0.3      0.0301999694183905     0.00924326412001211    6.50181393193163E-06    1.05094663507635E-10    8.12445253060489E-06                       0                       0                       0                       0                       0                       0        3427.53307614666       -3415.97740656593        353.012167926578        430.499898789848      0.0394578669976117        4026.87337597948        12070807.2209624        1.69910432212646 
       1.46361361361361                     0.3      0.0302052645788433     0.00924460008940043    6.67328646253185E-06    1.14038126126881E-10     8.3443692816211E-06                       0                       0                       0                       0                       0                       0        3427.48402491347       -3415.68253785133        353.711296796418        431.391930750713      0.0394648897323122        4036.15295493388        12070497.7080294        1.69421234055848 
       1.46401401401401                     0.3       0.030210559739296     0.00924593605878876    6.84475899313206E-06    1.22981588746126E-10     8.5642860326373E-06                       0                       0                       0                       0                       0                       0        3427.43497368029       -3415.38766913673        354.410425666259        432.283962711579      0.0394719124670126        4045.43253388827        12070188.1950965         1.6893203589905 
       1.46441441441441                     0.3      0.0302158548997488     0.00924727202817708    7.01623152373238E-06    1.31925051365377E-10    8.78420278365362E-06                       0                       0                       0                       0                       0                       0        3427.38592244711       -3415.09280042213        355.109554536099        433.175994672445      0.0394789352017131        4054.71211284267        12069878.6821635        1.68442837742252 
       1.46481481481481                     0.3      0.0302221831150236     0.00924884717062243    7.23409266262035E-06    1.51272246685391E-10     9.0635280945494E-06                       0                       0                       0                       0                       0                       0        3427.32752834611       -3414.74079070461        355.950528075688        434.126882724089      0.0394873358084261        4066.11538795764        12069524.9492208        1.67971875715177 
       1.46521521521522                     0.3      0.0302299282437899     0.00925075035715992    7.51557931636186E-06    1.84888955015557E-10    9.42433677708673E-06                       0                       0                       0                       0                       0                       0         3427.2563197892       -3414.31040774279        356.986052399944        435.158496393858      0.0394976262717101        4080.43147435531        12069110.5651617        1.67525925931095 
       1.46561561561562                     0.3      0.0302376733725561     0.00925265354369742    7.79706597010338E-06    2.18505663345723E-10    9.78514545962405E-06                       0                       0                       0                       0                       0                       0        3427.18511123229       -3413.88002478097          358.0215767242        436.190110063627      0.0395079167349941        4094.74756075298        12068696.1811025        1.67079976147013 
       1.46601601601602                     0.3      0.0302454185013224     0.00925455673023491    8.07855262384504E-06    2.52122371675907E-10    1.01459541421616E-05                       0                       0                       0                       0                       0                       0        3427.11390267538       -3413.44964181915        359.057101048457        437.221723733397      0.0395182071982781        4109.06364715066        12068281.7970434        1.66634026362931 
       1.46641641641642                     0.3      0.0302531636300887     0.00925645991677241    8.36003927758655E-06    2.85739080006073E-10    1.05067628246989E-05                       0                       0                       0                       0                       0                       0        3427.04269411848       -3413.01925885733        360.092625372713        438.253337403166      0.0395284976615622        4123.37973354833        12067867.4129842        1.66188076578849 
       1.46681681681682                     0.3      0.0302609087588549      0.0092583631033099    8.64152593132807E-06    3.19355788336239E-10    1.08675715072362E-05                       0                       0                       0                       0                       0                       0        3426.97148556157       -3412.58887589551        361.128149696969        439.284951072935      0.0395387881248462          4137.695819946        12067453.0289251        1.65742126794767 
       1.46721721721722                     0.3      0.0302686538876212     0.00926026628984739    8.92301258506958E-06    3.52972496666405E-10    1.12283801897735E-05                       0                       0                       0                       0                       0                       0        3426.90027700466       -3412.15849293369        362.163674021225        440.316564742704      0.0395490785881302        4152.01190634368        12067038.6448659        1.65296177010685 
       1.46761761761762                     0.3      0.0302732776198322     0.00926142175674324    9.07954593791735E-06     3.7047698010052E-10    1.14289554923578E-05                       0                       0                       0                       0                       0                       0        3426.85839079477       -3411.90822275516        362.756630493262        441.059336942322      0.0395552147443164        4160.15145210722        12066780.7137542        1.64675223659126 
       1.46801801801802                     0.3      0.0302745110153044     0.00926176508031587    9.10035998719015E-06    3.70481005953327E-10     1.1455491673277E-05                       0                       0                       0                       0                       0                       0        3426.84835335148       -3411.85358391518        362.868887373864        441.488381029981      0.0395568386574317        4161.58228519675        12066692.7156089        1.63864188395915 
       1.46841841841842                     0.3      0.0302757444107765      0.0092621084038885    9.12117403646294E-06    3.70485031806135E-10    1.14820278541962E-05                       0                       0                       0                       0                       0                       0        3426.83831590819       -3411.79894507521        362.981144254467         441.91742511764      0.0395584625705469        4163.01311828628        12066604.7174636        1.63053153132704 
       1.46881881881882                     0.3      0.0302769778062487     0.00926245172746113    9.14198808573574E-06    3.70489057658943E-10    1.15085640351154E-05                       0                       0                       0                       0                       0                       0        3426.82827846489       -3411.74430623523        363.093401135069        442.346469205298      0.0395600864836621        4164.44395137581        12066516.7193182        1.62242117869493 
       1.46921921921922                     0.3      0.0302782112017208     0.00926279505103376    9.16280213500855E-06     3.7049308351175E-10    1.15351002160346E-05                       0                       0                       0                       0                       0                       0         3426.8182410216       -3411.68966739526        363.205658015672        442.775513292957      0.0395617103967774        4165.87478446535        12066428.7211729        1.61431082606282 
       1.46961961961962                     0.3       0.030279444597193     0.00926313837460639    9.18361618428134E-06    3.70497109364558E-10    1.15616363969539E-05                       0                       0                       0                       0                       0                       0        3426.80820357831       -3411.63502855528        363.317914896274        443.204557380616      0.0395633343098926        4167.30561755488        12066340.7230276        1.60620047343071 
       1.47002002002002                     0.3      0.0302806779926651     0.00926348169817902    9.20443023355414E-06    3.70501135217366E-10    1.15881725778731E-05                       0                       0                       0                       0                       0                       0        3426.79816613502       -3411.58038971531        363.430171776877        443.633601468274      0.0395649582230079        4168.73645064441        12066252.7248822         1.5980901207986 
       1.47042042042042                     0.3      0.0302819113881373     0.00926382502175165    9.22524428282694E-06    3.70505161070173E-10    1.16147087587923E-05                       0                       0                       0                       0                       0                       0        3426.78812869173       -3411.52575087533        363.542428657479        444.062645555933      0.0395665821361231        4170.16728373394        12066164.7267369        1.58997976816649 
       1.47082082082082                     0.3      0.0302831447836094     0.00926416834532428    9.24605833209974E-06    3.70509186922981E-10    1.16412449397115E-05                       0                       0                       0                       0                       0                       0        3426.77809124844       -3411.47111203536        363.654685538082        444.491689643592      0.0395682060492384        4171.59811682347        12066076.7285916        1.58186941553438 
       1.47122122122122                     0.3      0.0302843781790816     0.00926451166889691    9.26687238137254E-06    3.70513212775789E-10    1.16677811206307E-05                       0                       0                       0                       0                       0                       0        3426.76805380515       -3411.41647319538        363.766942418684         444.92073373125      0.0395698299623536          4173.028949913        12065988.7304462        1.57375906290227 
       1.47162162162162                     0.3      0.0302856115745537     0.00926485499246955    9.28768643064533E-06    3.70517238628596E-10    1.16943173015499E-05                       0                       0                       0                       0                       0                       0        3426.75801636186       -3411.36183435541        363.879199299287        445.349777818909      0.0395714538754688        4174.45978300253        12065900.7323009        1.56564871027016 
       1.47202202202202                     0.3      0.0302868449700259     0.00926519831604218    9.30850047991813E-06    3.70521264481404E-10    1.17208534824691E-05                       0                       0                       0                       0                       0                       0        3426.74797891857       -3411.30719551543        363.991456179889        445.778821906568      0.0395730777885841        4175.89061609206        12065812.7341556        1.55753835763805 
       1.47242242242242                     0.3       0.030288078365498     0.00926554163961481    9.32931452919094E-06    3.70525290334212E-10    1.17473896633883E-05                       0                       0                       0                       0                       0                       0        3426.73794147527       -3411.25255667546        364.103713060492        446.207865994227      0.0395747017016993        4177.32144918159        12065724.7360102        1.54942800500594 
       1.47282282282282                     0.3      0.0302893117609702     0.00926588496318744    9.35012857846373E-06    3.70529316187019E-10    1.17739258443075E-05                       0                       0                       0                       0                       0                       0        3426.72790403198       -3411.19791783548        364.215969941094        446.636910081885      0.0395763256148146        4178.75228227112        12065636.7378649        1.54131765237383 