VARIABLES = "X"
 "Y"
 "rho_N2"
 "rho_O2"
 "rho_NO"
 "rho_N"
 "rho_O"
 "U"
 "V"
 "T"
 "Tv"
 "rho"
 "P"
 "H"
 "tau"
ZONE
DT=(DOUBLE,DOUBLE,DOUBLE,DOUBLE,DOUBLE,DOUBLE,DOUBLE,DOUBLE,DOUBLE,DOUBLE,DOUBLE,DOUBLE,DOUBLE,DOUBLE,DOUBLE)
                      0                     0.1       0.029899999499321     0.00916200038045645    1.88181779404192E-20    5.81226340978872E-21    1.00363597580884E-20                    3430                    -605        322.884002685547        322.884002685547         0.0390620008111            3635.2109375                 6391335        3.05904698371887 
     0.0025025025025025                     0.1       0.029899999499321     0.00916200038045645    2.50242969478788E-20    5.81226349966085E-21     1.3346289792446E-20                    3430                    -605        322.884002685547        322.884002685547         0.0390620008111            3635.2109375                 6391335        3.36219581720649 
      0.005005005005005                     0.1       0.029899999499321     0.00916200038045645    3.10074160260347E-20    5.81226349966085E-21    1.65372866821601E-20                    3430                    -605        322.884002685547        322.884002685547         0.0390620008111            3635.2109375                 6391335        3.66534465069411 
    0.00750750750750751                     0.1       0.029899999499321     0.00916200038045645    3.69905351041905E-20    5.81226349966085E-21    1.97282835718742E-20                    3430                    -605        322.884002685547        322.884002685547         0.0390620008111            3635.2109375                 6391335        3.96849348418173 
       0.01001001001001                     0.1       0.029899999499321     0.00916200038045645    4.29736541823463E-20    5.81226349966085E-21    2.29192804615882E-20                    3430                    -605        322.884002685547        322.884002685547         0.0390620008111            3635.2109375                 6391335        4.27164231766935 
     0.0125125125125125                     0.1       0.029899999499321     0.00916200038045645    4.89567732605021E-20    5.81226349966085E-21    2.61102773513023E-20                    3430                    -605        322.884002685547        322.884002685547         0.0390620008111            3635.2109375                 6391335        4.57479115115697 
      0.015015015015015                     0.1       0.029899999499321     0.00916200038045645    5.49398923386579E-20    5.81226349966085E-21    2.93012742410163E-20                    3430                    -605        322.884002685547        322.884002685547         0.0390620008111            3635.2109375                 6391335        4.87793998464459 
     0.0175175175175175                     0.1       0.029899999499321     0.00916200038045645    6.09230114168137E-20    5.81226349966085E-21    3.24922711307304E-20                    3430                    -605        322.884002685547        322.884002685547         0.0390620008111            3635.2109375                 6391335         5.1810888181322 
       0.02002002002002                     0.1       0.029899999499321     0.00916200038045645    6.69061304949695E-20    5.81226349966085E-21    3.56832680204444E-20                    3430                    -605        322.884002685547        322.884002685547         0.0390620008111            3635.2109375                 6391335        5.48423765161982 
     0.0225225225225225                     0.1       0.029899999499321     0.00916200038045645    7.28892495731253E-20    5.81226349966085E-21    3.88742649101585E-20                    3430                    -605        322.884002685547        322.884002685547         0.0390620008111            3635.2109375                 6391335        5.78738648510744 
      0.025025025025025                     0.1       0.029899999499321     0.00916200038045645     7.9072796231103E-20      5.812263580436E-21    4.21721563734086E-20                    3430                    -605        322.884002685547        322.884002685547         0.0390620008111            3635.2109375                 6391335        6.09053531859506 
     0.0275275275275275                     0.1       0.029899999499321     0.00916200038045645    8.88847510632414E-20      5.553531802921E-21    4.74051979475737E-20                    3430                    -605        322.884002685547        322.884002685547         0.0390620008111            3635.2109375                 6391335        6.11809492111206 
       0.03003003003003                     0.1       0.029899999499321     0.00916200038045645    9.93875299278715E-20    5.55352259698309E-21    5.30066778313053E-20                    3430                    -605        322.884002685547        322.884002685547         0.0390620008111            3635.2109375                 6391335        6.11809492111206 
     0.0325325325325325                     0.1       0.029899999499321     0.00916200038045645    1.09890308792502E-19    5.55351339104518E-21    5.86081577150369E-20                    3430                    -605        322.884002685547        322.884002685547         0.0390620008111            3635.2109375                 6391335        6.11809492111206 
      0.035035035035035                     0.1       0.029899999499321     0.00916200038045645    1.20393087657132E-19    5.55350418510727E-21    6.42096375987685E-20                    3430                    -605        322.884002685547        322.884002685547         0.0390620008111            3635.2109375                 6391335        6.11809492111206 
     0.0375375375375375                     0.1       0.029899999499321     0.00916200038045645    1.30895866521762E-19    5.55349497916936E-21    6.98111174825001E-20                    3430                    -605        322.884002685547        322.884002685547         0.0390620008111            3635.2109375                 6391335        6.11809492111206 
       0.04004004004004                     0.1       0.029899999499321     0.00916200038045645    1.41398645386392E-19    5.55348577323145E-21    7.54125973662317E-20                    3430                    -605        322.884002685547        322.884002685547         0.0390620008111            3635.2109375                 6391335        6.11809492111206 
     0.0425425425425425                     0.1       0.029899999499321     0.00916200038045645    1.51901424251022E-19    5.55347656729354E-21    8.10140772499634E-20                    3430                    -605        322.884002685547        322.884002685547         0.0390620008111            3635.2109375                 6391335        6.11809492111206 
      0.045045045045045                     0.1       0.029899999499321     0.00916200038045645    1.62404203115652E-19    5.55346736135563E-21    8.66155571336949E-20                    3430                    -605        322.884002685547        322.884002685547         0.0390620008111            3635.2109375                 6391335        6.11809492111206 
     0.0475475475475476                     0.1       0.029899999499321     0.00916200038045645    1.72906981980282E-19    5.55345815541771E-21    9.22170370174266E-20                    3430                    -605        322.884002685547        322.884002685547         0.0390620008111            3635.2109375                 6391335        6.11809492111206 
       0.05005005005005                     0.1       0.029899999499321     0.00916200038045645    1.83168491085882E-19    5.34710092557299E-21    9.76898404838509E-20                    3430                    -605        322.884002685547        322.884002685547         0.0390620008111            3635.2109375                 6391335        6.11809492111206 
     0.0525525525525526                     0.1       0.029899999499321     0.00916200038045645    1.92136718438856E-19    5.29472396167226E-21    1.02472894421988E-19                    3430                    -605        322.884002685547        322.884002685547         0.0390620008111            3635.2109375                 6391335        6.11809492111206 
     0.0550550550550551                     0.1       0.029899999499321     0.00916200038045645    2.01106323177032E-19    5.29472397179615E-21    1.07256681803685E-19                    3430                    -605        322.884002685547        322.884002685547         0.0390620008111            3635.2109375                 6391335        6.11809492111206 
     0.0575575575575576                     0.1       0.029899999499321     0.00916200038045645     2.1009917953392E-19    5.29472397179615E-21    1.12052869939454E-19                    3430                    -605        322.884002685547        322.884002685547         0.0390620008111            3635.2109375                 6391335        6.11809492111206 
     0.0600600600600601                     0.1       0.029899999499321     0.00916200038045645    2.19092035890808E-19    5.29472397179615E-21    1.16849058075222E-19                    3430                    -605        322.884002685547        322.884002685547         0.0390620008111            3635.2109375                 6391335        6.11809492111206 
     0.0625625625625626                     0.1       0.029899999499321     0.00916200038045645    2.28084892247696E-19    5.29472397179615E-21    1.21645246210991E-19                    3430                    -605        322.884002685547        322.884002685547         0.0390620008111            3635.2109375                 6391335        6.11809492111206 
     0.0650650650650651                     0.1       0.029899999499321     0.00916200038045645    2.37077748604584E-19    5.29472397179615E-21    1.26441434346759E-19                    3430                    -605        322.884002685547        322.884002685547         0.0390620008111            3635.2109375                 6391335        6.11809492111206 
     0.0675675675675676                     0.1       0.029899999499321     0.00916200038045645    2.46070604961472E-19    5.29472397179615E-21    1.31237622482527E-19                    3430                    -605        322.884002685547        322.884002685547         0.0390620008111            3635.2109375                 6391335        6.11809492111206 
     0.0700700700700701                     0.1       0.029899999499321     0.00916200038045645     2.5506346131836E-19    5.29472397179615E-21    1.36033810618296E-19                    3430                    -605        322.884002685547        322.884002685547         0.0390620008111            3635.2109375                 6391335        6.11809492111206 
     0.0725725725725726                     0.1       0.029899999499321     0.00916200038045645    2.64056317675248E-19    5.29472397179615E-21    1.40829998754064E-19                    3430                    -605        322.884002685547        322.884002685547         0.0390620008111            3635.2109375                 6391335        6.11809492111206 
     0.0750750750750751                     0.1       0.029899999499321     0.00916200038045645    2.72867308953379E-19     5.2947240509813E-21    1.45529193035611E-19                    3430                    -605        322.884002685547        322.884002685547         0.0390620008111            3635.2109375                 6391335        6.11809492111206 
     0.0775775775775776                     0.1       0.029899999499321     0.00916200038045645    2.80276572364696E-19    5.08528255290236E-21    1.49480801713658E-19                    3430                    -605        322.884002685547        322.884002685547         0.0390620008111            3635.2109375                 6391335        6.11809492111206 
     0.0800800800800801                     0.1       0.029899999499321     0.00916200038045645    2.87038583292274E-19    4.55852474480095E-21    1.53087214095073E-19                    3430                    -605        322.884002685547        322.884002685547         0.0390620008111            3635.2109375                 6391335        6.11809492111206 
     0.0825825825825826                     0.1       0.029899999499321     0.00916200038045645    2.93767116039022E-19    3.98255933463857E-21     1.5667577232213E-19                    3430                    -605        322.884002685547        322.884002685547         0.0390620008111            3635.2109375                 6391335        6.11809492111206 
     0.0850850850850851                     0.1       0.029899999499321     0.00916200038045645    3.00495648785769E-19    3.40659392447619E-21    1.60264330549186E-19                    3430                    -605        322.884002685547        322.884002685547         0.0390620008111            3635.2109375                 6391335        6.11809492111206 
     0.0875875875875876                     0.1       0.029899999499321     0.00916200038045645    3.07224181532516E-19    2.83062851431382E-21    1.63852888776242E-19                    3430                    -605        322.884002685547        322.884002685547         0.0390620008111            3635.2109375                 6391335        6.11809492111206 
     0.0900900900900901                     0.1       0.029899999499321     0.00916200038045645    3.13952714279264E-19    2.25466310415144E-21    1.67441447003299E-19                    3430                    -605        322.884002685547        322.884002685547         0.0390620008111            3635.2109375                 6391335        6.11809492111206 
     0.0925925925925926                     0.1       0.029899999499321     0.00916200038045645    3.20681247026011E-19    1.67869769398906E-21    1.71030005230355E-19                    3430                    -605        322.884002685547        322.884002685547         0.0390620008111            3635.2109375                 6391335        6.11809492111206 
     0.0950950950950951                     0.1       0.029899999499321     0.00916200038045645    3.27409779772758E-19    1.10273228382668E-21    1.74618563457411E-19                    3430                    -605        322.884002685547        322.884002685547         0.0390620008111            3635.2109375                 6391335        6.11809492111206 
     0.0975975975975976                     0.1       0.029899999499321     0.00916200038045645    3.34138312519505E-19    5.26766873664302E-22    1.78207121684468E-19                    3430                    -605        322.884002685547        322.884002685547         0.0390620008111            3635.2109375                 6391335        6.11809492111206 
        0.1001001001001                     0.1       0.029899999499321     0.00916200038045645     3.4097156995472E-19    1.04730102038937E-22    1.81851530340269E-19                    3430                    -605        322.884002685547        322.884002685547         0.0390620008111            3635.2109375                 6391335        6.11809492111206 
      0.102602602602603                     0.1       0.029899999499321     0.00916200038045645    3.49078859291128E-19    5.69073411286033E-24    1.86175416189309E-19                    3430                    -605        322.884002685547        322.884002685547         0.0390620008111            3635.2109375                 6391335        6.11809492111206 
      0.105105105105105                     0.1       0.029899999499321     0.00916200038045645    3.58126254858719E-19    2.10866344320937E-23    1.91000691417501E-19                    3430                    -605        322.884002685547        322.884002685547         0.0390620008111            3635.2109375                 6391335        6.11809492111206 
      0.107607607607608                     0.1       0.029899999499321     0.00916200038045645     3.6726733901503E-19    3.87761645815578E-23    1.95875934507709E-19                    3430                    -605        322.884002685547        322.884002685547         0.0390620008111            3635.2109375                 6391335        6.11809492111206 
       0.11011011011011                     0.1       0.029899999499321     0.00916200038045645     3.7640842317134E-19     5.6465694731022E-23    2.00751177597917E-19                    3430                    -605        322.884002685547        322.884002685547         0.0390620008111            3635.2109375                 6391335        6.11809492111206 
      0.112612612612613                     0.1       0.029899999499321     0.00916200038045645    3.85549507327651E-19    7.41552248804861E-23    2.05626420688125E-19                    3430                    -605        322.884002685547        322.884002685547         0.0390620008111            3635.2109375                 6391335        6.11809492111206 
      0.115115115115115                     0.1       0.029899999499321     0.00916200038045645    3.94690591483962E-19    9.18447550299505E-23    2.10501663778333E-19                    3430                    -605        322.884002685547        322.884002685547         0.0390620008111            3635.2109375                 6391335        6.11809492111206 
      0.117617617617618                     0.1       0.029899999499321     0.00916200038045645    4.03831675640272E-19    1.09534285179415E-22    2.15376906868541E-19                    3430                    -605        322.884002685547        322.884002685547         0.0390620008111            3635.2109375                 6391335        6.11809492111206 
       0.12012012012012                     0.1       0.029899999499321     0.00916200038045645    4.12972759796583E-19    1.27223815328879E-22    2.20252149958749E-19                    3430                    -605        322.884002685547        322.884002685547         0.0390620008111            3635.2109375                 6391335        6.11809492111206 
      0.122622622622623                     0.1       0.029899999499321     0.00916200038045645    4.22113843952893E-19    1.44913345478343E-22    2.25127393048958E-19                    3430                    -605        322.884002685547        322.884002685547         0.0390620008111            3635.2109375                 6391335        6.11809492111206 
      0.125125125125125                     0.1       0.029899999499321     0.00916200038045645     4.3109616440333E-19    1.58716114425301E-22    2.29917961121036E-19                    3430                    -605        322.884002685547        322.884002685547         0.0390620008111            3635.2109375                 6391335        6.11809492111206 
      0.127627627627628                     0.1       0.029899999499321     0.00916200038045645    4.40034268618168E-19     1.6282717834549E-22    2.34684954580722E-19                    3430                    -605        322.884002685547        322.884002685547         0.0390620008111            3635.2109375                 6391335        5.95273888615637 
       0.13013013013013                     0.1       0.029899999499321     0.00916200038045645     4.4915114154858E-19    1.62875002348832E-22    2.39547293840333E-19                    3430                    -605        322.884002685547        322.884002685547         0.0390620008111            3635.2109375                 6391335        5.64959083528354 
      0.132632632632633                     0.1       0.029899999499321     0.00916200038045645    4.58295080314225E-19    1.62895873247668E-22    2.44424065622194E-19                    3430                    -605        322.884002685547        322.884002685547         0.0390620008111            3635.2109375                 6391335        5.34644278441071 
      0.135135135135135                     0.1       0.029899999499321     0.00916200038045645     4.6743901907987E-19    1.62916744146504E-22    2.49300837404055E-19                    3430                    -605        322.884002685547        322.884002685547         0.0390620008111            3635.2109375                 6391335        5.04329473353787 
      0.137637637637638                     0.1       0.029899999499321     0.00916200038045645    4.76582957845515E-19    1.62937615045341E-22    2.54177609185916E-19                    3430                    -605        322.884002685547        322.884002685547         0.0390620008111            3635.2109375                 6391335        4.74014668266504 
       0.14014014014014                     0.1       0.029899999499321     0.00916200038045645     4.8572689661116E-19    1.62958485944177E-22    2.59054380967777E-19                    3430                    -605        322.884002685547        322.884002685547         0.0390620008111            3635.2109375                 6391335        4.43699863179221 
      0.142642642642643                     0.1       0.029899999499321     0.00916200038045645    4.94870835376805E-19    1.62979356843013E-22    2.63931152749639E-19                    3430                    -605        322.884002685547        322.884002685547         0.0390620008111            3635.2109375                 6391335        4.13385058091937 
      0.145145145145145                     0.1       0.029899999499321     0.00916200038045645    5.04014774142449E-19    1.63000227741849E-22      2.688079245315E-19                    3430                    -605        322.884002685547        322.884002685547         0.0390620008111            3635.2109375                 6391335        3.83070253004654 
      0.147647647647648                     0.1       0.029899999499321     0.00916200038045645    5.13158712908094E-19    1.63021098640685E-22    2.73684696313361E-19                    3430                    -605        322.884002685547        322.884002685547         0.0390620008111            3635.2109375                 6391335        3.52755447917371 
       0.15015015015015                     0.1       0.029899999499321     0.00916200038045645    5.22275586701666E-19    1.63068921784463E-22     2.7854703603324E-19                    3430                    -605        322.884002685547        322.884002685547         0.0390620008111            3635.2109375                 6391335        3.22440642830088 
      0.152652652652653                     0.1       0.029899999499321     0.00916200038045645    5.30790548785535E-19    1.59064054086551E-22    2.83088360734165E-19                    3430                    -605        322.884002685547        322.884002685547         0.0390620008111            3635.2109375                 6391335        3.19683607785282 
      0.155155155155155                     0.1       0.029899999499321     0.00916200038045645    5.38708592363513E-19    1.45261362910079E-22    2.87311319781601E-19                    3430                    -605        322.884002685547        322.884002685547         0.0390620008111            3635.2109375                 6391335        3.49998520202696 
      0.157657657657658                     0.1       0.029899999499321     0.00916200038045645    5.46679110970759E-19    1.27571876369163E-22    2.91562258427822E-19                    3430                    -605        322.884002685547        322.884002685547         0.0390620008111            3635.2109375                 6391335         3.8031343262011 
       0.16016016016016                     0.1       0.029899999499321     0.00916200038045645    5.54649629578005E-19    1.09882389828248E-22    2.95813197074043E-19                    3430                    -605        322.884002685547        322.884002685547         0.0390620008111            3635.2109375                 6391335        4.10628345037524 
      0.162662662662663                     0.1       0.029899999499321     0.00916200038045645     5.6262014818525E-19     9.2192903287333E-23    3.00064135720265E-19                    3430                    -605        322.884002685547        322.884002685547         0.0390620008111            3635.2109375                 6391335        4.40943257454938 
      0.165165165165165                     0.1       0.029899999499321     0.00916200038045645    5.70590666792496E-19    7.45034167464177E-23    3.04315074366486E-19                    3430                    -605        322.884002685547        322.884002685547         0.0390620008111            3635.2109375                 6391335        4.71258169872352 
      0.167667667667668                     0.1       0.029899999499321     0.00916200038045645    5.78561185399742E-19    5.68139302055025E-23    3.08566013012707E-19                    3430                    -605        322.884002685547        322.884002685547         0.0390620008111            3635.2109375                 6391335        5.01573082289766 
       0.17017017017017                     0.1       0.029899999499321     0.00916200038045645    5.86531704006988E-19    3.91244436645871E-23    3.12816951658928E-19                    3430                    -605        322.884002685547        322.884002685547         0.0390620008111            3635.2109375                 6391335         5.3188799470718 
      0.172672672672673                     0.1       0.029899999499321     0.00916200038045645    5.94502222614233E-19     2.1434957123672E-23    3.17067890305149E-19                    3430                    -605        322.884002685547        322.884002685547         0.0390620008111            3635.2109375                 6391335        5.62202907124594 
      0.175175175175175                     0.1       0.029899999499321     0.00916200038045645     6.0244177711962E-19    6.03896387377223E-24     3.2130231894349E-19                    3430                    -605        322.884002685547        322.884002685547         0.0390620008111            3635.2109375                 6391335        5.92517819542008 
      0.177677677677678                     0.1       0.029899999499321     0.00916200038045645    6.10422513069904E-19    3.21860485909008E-25    3.25558650989856E-19                    3430                    -605        322.884002685547        322.884002685547         0.0390620008111            3635.2109375                 6391335        6.11809492111206 
       0.18018018018018                     0.1       0.029899999499321     0.00916200038045645     6.1865570063845E-19     2.5933724311055E-25    3.29949518801733E-19                    3430                    -605        322.884002685547        322.884002685547         0.0390620008111            3635.2109375                 6391335        6.11809492111206 
      0.182682682682683                     0.1       0.029899999499321     0.00916200038045645    6.26920527382705E-19    2.37552269749066E-25    3.34357284482975E-19                    3430                    -605        322.884002685547        322.884002685547         0.0390620008111            3635.2109375                 6391335        6.11809492111206 
      0.185185185185185                     0.1       0.029899999499321     0.00916200038045645    6.35185354126959E-19    2.15767296387582E-25    3.38765050164216E-19                    3430                    -605        322.884002685547        322.884002685547         0.0390620008111            3635.2109375                 6391335        6.11809492111206 
      0.187687687687688                     0.1       0.029899999499321     0.00916200038045645    6.43450180871213E-19    1.93982323026098E-25    3.43172815845458E-19                    3430                    -605        322.884002685547        322.884002685547         0.0390620008111            3635.2109375                 6391335        6.11809492111206 
       0.19019019019019                     0.1       0.029899999499321     0.00916200038045645    6.51715007615467E-19    1.72197349664613E-25      3.475805815267E-19                    3430                    -605        322.884002685547        322.884002685547         0.0390620008111            3635.2109375                 6391335        6.11809492111206 
      0.192692692692693                     0.1       0.029899999499321     0.00916200038045645    6.59979834359721E-19    1.50412376303129E-25    3.51988347207942E-19                    3430                    -605        322.884002685547        322.884002685547         0.0390620008111            3635.2109375                 6391335        6.11809492111206 
      0.195195195195195                     0.1       0.029899999499321     0.00916200038045645    6.68244661103975E-19    1.28627402941645E-25    3.56396112889183E-19                    3430                    -605        322.884002685547        322.884002685547         0.0390620008111            3635.2109375                 6391335        6.11809492111206 
      0.197697697697698                     0.1       0.029899999499321     0.00916200038045645    6.76509487848229E-19    1.06842429580161E-25    3.60803878570425E-19                    3430                    -605        322.884002685547        322.884002685547         0.0390620008111            3635.2109375                 6391335        6.11809492111206 
        0.2002002002002                     0.1       0.029899999499321     0.00916200038045645    6.84764200459856E-19    7.20346055639365E-26    3.65206242489831E-19                    3430                    -605        322.884002685547        322.884002685547         0.0390620008111            3635.2109375                 6391335        6.11809492111206 
      0.202702702702703                     0.1       0.029899999499321     0.00916200038045645    6.93387619228994E-19    2.29670804544078E-27    3.69805381833736E-19                    3430                    -605        322.884002685547        322.884002685547         0.0390620008111            3635.2109375                 6391335        6.11809492111206 